ITEM: TIMESTEP
0
ITEM: NUMBER OF ATOMS
10
ITEM: BOX BOUNDS pp pp pp
-2.0000000000000000e+01 2.0000000000000000e+01
-2.0000000000000000e+01 2.0000000000000000e+01
-2.0000000000000000e+01 2.0000000000000000e+01
ITEM: ATOMS id type x y z quatw quati quatj quatk shapex shapey shapez
1 0 -0.337415 -0.437088 0.645069 1 0 0 0 0.3 0.3 0.7
2 0 -0.321426 -0.713774 1.18174 0.923785 0.382911 0 0 0.5 0.6 0.5
3 0 -0.130364 -0.914714 1.62581 0.923785 0 0.382911 0 0.2 0.5 0.5
8 0 0.329733 0.176576 1.72063 0.57735 0.57735 0.57735 0 0.6 0.4 0.4
9 0 0.60637 0.046826 1.2335 0.57735 0 0.57735 0.57735 0.2 0.3 0.7
10 0 0.800398 -0.364393 0.988403 0 0.57735 0.57735 0.57735 0.5 0.3 0.5
4 0 0.167951 -0.980851 2.08949 0.662366 -0.0281863 0.0229426 0.748298 0.2 0.4 0.3
5 0 0.463704 -0.780335 2.4252 0.360149 0.0513615 0.0724224 0.92866 0.3 0.4 0.2
6 0 -0.446295 0.0906216 2.46689 0.707107 0 0 0.707107 0.5 0.5 0.2
7 0 -0.0337705 0.209798 2.07821 0.707107 0 0.707107 0 0.5 0.2 0.5
ITEM: TIMESTEP
1
ITEM: NUMBER OF ATOMS
10
ITEM: BOX BOUNDS pp pp pp
-2.0000000000000000e+01 2.0000000000000000e+01
-2.0000000000000000e+01 2.0000000000000000e+01
-2.0000000000000000e+01 2.0000000000000000e+01
ITEM: ATOMS id type x y z quatw quati quatj quatk shapex shapey shapez
1 0 -0.337414 -0.437088 0.645068 1 0 0 0 0.3 0.3 0.7
2 0 -0.321426 -0.713774 1.18174 0.923785 0.382911 0 0 0.5 0.6 0.5
3 0 -0.130364 -0.914714 1.62581 0.923785 0 0.382911 0 0.2 0.5 0.5
8 0 0.329732 0.176576 1.72063 0.57735 0.57735 0.57735 0 0.6 0.4 0.4
9 0 0.606371 0.0468246 1.23351 0.57735 0 0.57735 0.57735 0.2 0.3 0.7
10 0 0.800398 -0.364392 0.988401 0 0.57735 0.57735 0.57735 0.5 0.3 0.5
4 0 0.167951 -0.980851 2.08949 0.662366 -0.0281863 0.0229426 0.748298 0.2 0.4 0.3
5 0 0.463704 -0.780335 2.4252 0.360149 0.0513615 0.0724224 0.92866 0.3 0.4 0.2
6 0 -0.446295 0.0906216 2.46689 0.707107 0 0 0.707107 0.5 0.5 0.2
7 0 -0.0337705 0.209799 2.07821 0.707107 0 0.707107 0 0.5 0.2 0.5
ITEM: TIMESTEP
2
ITEM: NUMBER OF ATOMS
10
ITEM: BOX BOUNDS pp pp pp
-2.0000000000000000e+01 2.0000000000000000e+01
-2.0000000000000000e+01 2.0000000000000000e+01
-2.0000000000000000e+01 2.0000000000000000e+01
ITEM: ATOMS id type x y z quatw quati quatj quatk shapex shapey shapez
1 0 -0.337414 -0.437089 0.645068 1 0 0 0 0.3 0.3 0.7
2 0 -0.321426 -0.713774 1.18174 0.923785 0.382911 0 0 0.5 0.6 0.5
3 0 -0.130364 -0.914714 1.62581 0.923785 0 0.382911 0 0.2 0.5 0.5
8 0 0.329732 0.176576 1.72063 0.57735 0.57735 0.57735 0 0.6 0.4 0.4
9 0 0.606373 0.0468205 1.23352 0.57735 0 0.57735 0.57735 0.2 0.3 0.7
10 0 0.800397 -0.36439 0.988397 0 0.57735 0.57735 0.57735 0.5 0.3 0.5
4 0 0.167951 -0.980851 2.08949 0.662366 -0.0281863 0.0229426 0.748298 0.2 0.4 0.3
5 0 0.463704 -0.780335 2.4252 0.360149 0.0513615 0.0724224 0.92866 0.3 0.4 0.2
6 0 -0.446295 0.0906215 2.46689 0.707107 0 0 0.707107 0.5 0.5 0.2
7 0 -0.0337706 0.209799 2.07821 0.707107 0 0.707107 0 0.5 0.2 0.5
ITEM: TIMESTEP
3
ITEM: NUMBER OF ATOMS
10
ITEM: BOX BOUNDS pp pp pp
-2.0000000000000000e+01 2.0000000000000000e+01
-2.0000000000000000e+01 2.0000000000000000e+01
-2.0000000000000000e+01 2.0000000000000000e+01
ITEM: ATOMS id type x y z quatw quati quatj quatk shapex shapey shapez
1 0 -0.337414 -0.437089 0.645068 1 0 0 0 0.3 0.3 0.7
2 0 -0.321426 -0.713774 1.18174 0.923785 0.382911 0 0 0.5 0.6 0.5
3 0 -0.130364 -0.914714 1.62581 0.923785 0 0.382911 0 0.2 0.5 0.5
8 0 0.329732 0.176576 1.72063 0.57735 0.57735 0.57735 0 0.6 0.4 0.4
9 0 0.606376 0.0468139 1.23353 0.57735 0 0.57735 0.57735 0.2 0.3 0.7
10 0 0.800395 -0.364387 0.98839 0 0.57735 0.57735 0.57735 0.5 0.3 0.5
4 0 0.167951 -0.980851 2.08949 0.662366 -0.0281863 0.0229426 0.748298 0.2 0.4 0.3
5 0 0.463704 -0.780336 2.4252 0.360149 0.0513615 0.0724224 0.92866 0.3 0.4 0.2
6 0 -0.446295 0.0906215 2.46689 0.707107 0 0 0.707107 0.5 0.5 0.2
7 0 -0.0337706 0.209799 2.07821 0.707107 0 0.707107 0 0.5 0.2 0.5
ITEM: TIMESTEP
4
ITEM: NUMBER OF ATOMS
10
ITEM: BOX BOUNDS pp pp pp
-2.0000000000000000e+01 2.0000000000000000e+01
-2.0000000000000000e+01 2.0000000000000000e+01
-2.0000000000000000e+01 2.0000000000000000e+01
ITEM: ATOMS id type x y z quatw quati quatj quatk shapex shapey shapez
1 0 -0.337413 -0.437089 0.645068 1 0 0 0 0.3 0.3 0.7
2 0 -0.321425 -0.713774 1.18174 0.923785 0.382911 0 0 0.5 0.6 0.5
3 0 -0.130364 -0.914714 1.62581 0.923785 0 0.382911 0 0.2 0.5 0.5
8 0 0.329732 0.176577 1.72063 0.57735 0.57735 0.57735 0 0.6 0.4 0.4
9 0 0.606382 0.0468047 1.23355 0.57735 0 0.57735 0.57735 0.2 0.3 0.7
10 0 0.800392 -0.364382 0.988379 0 0.57735 0.57735 0.57735 0.5 0.3 0.5
4 0 0.16795 -0.980851 2.08949 0.662366 -0.0281863 0.0229426 0.748298 0.2 0.4 0.3
5 0 0.463705 -0.780336 2.4252 0.360149 0.0513615 0.0724224 0.92866 0.3 0.4 0.2
6 0 -0.446295 0.0906214 2.46689 0.707107 0 0 0.707107 0.5 0.5 0.2
7 0 -0.0337706 0.209799 2.07821 0.707107 0 0.707107 0 0.5 0.2 0.5
ITEM: TIMESTEP
5
ITEM: NUMBER OF ATOMS
10
ITEM: BOX BOUNDS pp pp pp
-2.0000000000000000e+01 2.0000000000000000e+01
-2.0000000000000000e+01 2.0000000000000000e+01
-2.0000000000000000e+01 2.0000000000000000e+01
ITEM: ATOMS id type x y z quatw quati quatj quatk shapex shapey shapez
1 0 -0.337413 -0.437089 0.645068 1 0 0 0 0.3 0.3 0.7
2 0 -0.321425 -0.713774 1.18174 0.923785 0.382911 0 0 0.5 0.6 0.5
3 0 -0.130365 -0.914714 1.62581 0.923785 0 0.382911 0 0.2 0.5 0.5
8 0 0.329732 0.176577 1.72063 0.57735 0.57735 0.57735 0 0.6 0.4 0.4
9 0 0.606389 0.0467928 1.23357 0.57735 0 0.57735 0.57735 0.2 0.3 0.7
10 0 0.800388 -0.364375 0.988366 0 0.57735 0.57735 0.57735 0.5 0.3 0.5
4 0 0.16795 -0.980851 2.08949 0.662366 -0.0281863 0.0229426 0.748298 0.2 0.4 0.3
5 0 0.463705 -0.780336 2.4252 0.360149 0.0513615 0.0724224 0.92866 0.3 0.4 0.2
6 0 -0.446295 0.0906214 2.46689 0.707107 0 0 0.707107 0.5 0.5 0.2
7 0 -0.0337706 0.209799 2.07821 0.707107 0 0.707107 0 0.5 0.2 0.5
ITEM: TIMESTEP
6
ITEM: NUMBER OF ATOMS
10
ITEM: BOX BOUNDS pp pp pp
-2.0000000000000000e+01 2.0000000000000000e+01
-2.0000000000000000e+01 2.0000000000000000e+01
-2.0000000000000000e+01 2.0000000000000000e+01
ITEM: ATOMS id type x y z quatw quati quatj quatk shapex shapey shapez
1 0 -0.337413 -0.437089 0.645068 1 0 0 0 0.3 0.3 0.7
2 0 -0.321425 -0.713774 1.18174 0.923785 0.382911 0 0 0.5 0.6 0.5
3 0 -0.130365 -0.914715 1.62581 0.923785 0 0.382911 0 0.2 0.5 0.5
8 0 0.329732 0.176577 1.72064 0.57735 0.57735 0.57735 0 0.6 0.4 0.4
9 0 0.606397 0.0467783 1.2336 0.57735 0 0.57735 0.57735 0.2 0.3 0.7
10 0 0.800383 -0.364367 0.98835 0 0.57735 0.57735 0.57735 0.5 0.3 0.5
4 0 0.16795 -0.980851 2.08949 0.662366 -0.0281863 0.0229426 0.748298 0.2 0.4 0.3
5 0 0.463705 -0.780336 2.4252 0.360149 0.0513615 0.0724224 0.92866 0.3 0.4 0.2
6 0 -0.446295 0.0906213 2.46689 0.707107 0 0 0.707107 0.5 0.5 0.2
7 0 -0.0337706 0.209799 2.07821 0.707107 0 0.707107 0 0.5 0.2 0.5
ITEM: TIMESTEP
7
ITEM: NUMBER OF ATOMS
10
ITEM: BOX BOUNDS pp pp pp
-2.0000000000000000e+01 2.0000000000000000e+01
-2.0000000000000000e+01 2.0000000000000000e+01
-2.0000000000000000e+01 2.0000000000000000e+01
ITEM: ATOMS id type x y z quatw quati quatj quatk shapex shapey shapez
1 0 -0.337412 -0.437089 0.645068 1 0 0 0 0.3 0.3 0.7
2 0 -0.321425 -0.713774 1.18174 0.923785 0.382911 0 0 0.5 0.6 0.5
3 0 -0.130365 -0.914715 1.62581 0.923785 0 0.382911 0 0.2 0.5 0.5
8 0 0.329732 0.176577 1.72064 0.57735 0.57735 0.57735 0 0.6 0.4 0.4
9 0 0.606407 0.0467612 1.23363 0.57735 0 0.57735 0.57735 0.2 0.3 0.7
10 0 0.800378 -0.364358 0.988331 0 0.57735 0.57735 0.57735 0.5 0.3 0.5
4 0 0.16795 -0.98085 2.08949 0.662366 -0.0281863 0.0229426 0.748298 0.2 0.4 0.3
5 0 0.463705 -0.780337 2.4252 0.360149 0.0513615 0.0724224 0.92866 0.3 0.4 0.2
6 0 -0.446295 0.0906213 2.46689 0.707107 0 0 0.707107 0.5 0.5 0.2
7 0 -0.0337706 0.209799 2.07821 0.707107 0 0.707107 0 0.5 0.2 0.5
ITEM: TIMESTEP
8
ITEM: NUMBER OF ATOMS
10
ITEM: BOX BOUNDS pp pp pp
-2.0000000000000000e+01 2.0000000000000000e+01
-2.0000000000000000e+01 2.0000000000000000e+01
-2.0000000000000000e+01 2.0000000000000000e+01
ITEM: ATOMS id type x y z quatw quati quatj quatk shapex shapey shapez
1 0 -0.337412 -0.437089 0.645068 1 0 0 0 0.3 0.3 0.7
2 0 -0.321425 -0.713774 1.18174 0.923785 0.382911 0 0 0.5 0.6 0.5
3 0 -0.130365 -0.914715 1.62581 0.923785 0 0.382911 0 0.2 0.5 0.5
8 0 0.329732 0.176577 1.72064 0.57735 0.57735 0.57735 0 0.6 0.4 0.4
9 0 0.606418 0.0467416 1.23367 0.57735 0 0.57735 0.57735 0.2 0.3 0.7
10 0 0.800372 -0.364347 0.988309 0 0.57735 0.57735 0.57735 0.5 0.3 0.5
4 0 0.167949 -0.98085 2.08949 0.662366 -0.0281863 0.0229426 0.748298 0.2 0.4 0.3
5 0 0.463705 -0.780337 2.4252 0.360149 0.0513615 0.0724224 0.92866 0.3 0.4 0.2
6 0 -0.446295 0.0906212 2.46689 0.707107 0 0 0.707107 0.5 0.5 0.2
7 0 -0.0337706 0.209799 2.07821 0.707107 0 0.707107 0 0.5 0.2 0.5
ITEM: TIMESTEP
9
ITEM: NUMBER OF ATOMS
10
ITEM: BOX BOUNDS pp pp pp
-2.0000000000000000e+01 2.0000000000000000e+01
-2.0000000000000000e+01 2.0000000000000000e+01
-2.0000000000000000e+01 2.0000000000000000e+01
ITEM: ATOMS id type x y z quatw quati quatj quatk shapex shapey shapez
1 0 -0.337412 -0.437089 0.645068 1 0 0 0 0.3 0.3 0.7
2 0 -0.321425 -0.713774 1.18174 0.923785 0.382911 0 0 0.5 0.6 0.5
3 0 -0.130365 -0.914715 1.62581 0.923785 0 0.382911 0 0.2 0.5 0.5
8 0 0.329732 0.176577 1.72064 0.57735 0.57735 0.57735 0 0.6 0.4 0.4
9 0 0.606431 0.0467193 1.23372 0.57735 0 0.57735 0.57735 0.2 0.3 0.7
10 0 0.800364 -0.364335 0.988285 0 0.57735 0.57735 0.57735 0.5 0.3 0.5
4 0 0.167949 -0.98085 2.08949 0.662366 -0.0281863 0.0229426 0.748298 0.2 0.4 0.3
5 0 0.463705 -0.780337 2.4252 0.360149 0.0513615 0.0724224 0.92866 0.3 0.4 0.2
6 0 -0.446295 0.0906212 2.46689 0.707107 0 0 0.707107 0.5 0.5 0.2
7 0 -0.0337706 0.209799 2.07821 0.707107 0 0.707107 0 0.5 0.2 0.5
ITEM: TIMESTEP
10
ITEM: NUMBER OF ATOMS
10
ITEM: BOX BOUNDS pp pp pp
-2.0000000000000000e+01 2.0000000000000000e+01
-2.0000000000000000e+01 2.0000000000000000e+01
-2.0000000000000000e+01 2.0000000000000000e+01
ITEM: ATOMS id type x y z quatw quati quatj quatk shapex shapey shapez
1 0 -0.337411 -0.43709 0.645068 1 0 0 0 0.3 0.3 0.7
2 0 -0.321425 -0.713774 1.18174 0.923785 0.382911 0 0 0.5 0.6 0.5
3 0 -0.130365 -0.914715 1.62581 0.923785 0 0.382911 0 0.2 0.5 0.5
8 0 0.329732 0.176578 1.72064 0.57735 0.57735 0.57735 0 0.6 0.4 0.4
9 0 0.606446 0.0466945 1.23377 0.57735 0 0.57735 0.57735 0.2 0.3 0.7
10 0 0.800356 -0.364321 0.988257 0 0.57735 0.57735 0.57735 0.5 0.3 0.5
4 0 0.167949 -0.98085 2.08949 0.662366 -0.0281863 0.0229426 0.748298 0.2 0.4 0.3
5 0 0.463705 -0.780337 2.4252 0.360149 0.0513615 0.0724224 0.92866 0.3 0.4 0.2
6 0 -0.446295 0.0906211 2.46689 0.707107 0 0 0.707107 0.5 0.5 0.2
7 0 -0.0337707 0.209799 2.07821 0.707107 0 0.707107 0 0.5 0.2 0.5
ITEM: TIMESTEP
11
ITEM: NUMBER OF ATOMS
10
ITEM: BOX BOUNDS pp pp pp
-2.0000000000000000e+01 2.0000000000000000e+01
-2.0000000000000000e+01 2.0000000000000000e+01
-2.0000000000000000e+01 2.0000000000000000e+01
ITEM: ATOMS id type x y z quatw quati quatj quatk shapex shapey shapez
1 0 -0.337411 -0.43709 0.645068 1 0 0 0 0.3 0.3 0.7
2 0 -0.321424 -0.713774 1.18174 0.923785 0.382911 0 0 0.5 0.6 0.5
3 0 -0.130365 -0.914716 1.62581 0.923785 0 0.382911 0 0.2 0.5 0.5
8 0 0.329732 0.176578 1.72064 0.57735 0.57735 0.57735 0 0.6 0.4 0.4
9 0 0.606462 0.046667 1.23382 0.57735 0 0.57735 0.57735 0.2 0.3 0.7
10 0 0.800347 -0.364306 0.988226 0 0.57735 0.57735 0.57735 0.5 0.3 0.5
4 0 0.167949 -0.98085 2.08949 0.662366 -0.0281863 0.0229426 0.748298 0.2 0.4 0.3
5 0 0.463705 -0.780338 2.4252 0.360149 0.0513615 0.0724224 0.92866 0.3 0.4 0.2
6 0 -0.446295 0.0906211 2.46689 0.707107 0 0 0.707107 0.5 0.5 0.2
7 0 -0.0337707 0.209799 2.07821 0.707107 0 0.707107 0 0.5 0.2 0.5
ITEM: TIMESTEP
12
ITEM: NUMBER OF ATOMS
10
ITEM: BOX BOUNDS pp pp pp
-2.0000000000000000e+01 2.0000000000000000e+01
-2.0000000000000000e+01 2.0000000000000000e+01
-2.0000000000000000e+01 2.0000000000000000e+01
ITEM: ATOMS id type x y z quatw quati quatj quatk shapex shapey shapez
1 0 -0.337411 -0.43709 0.645068 1 0 0 0 0.3 0.3 0.7
2 0 -0.321424 -0.713774 1.18174 0.923785 0.382911 0 0 0.5 0.6 0.5
3 0 -0.130366 -0.914716 1.62581 0.923785 0 0.382911 0 0.2 0.5 0.5
8 0 0.329732 0.176578 1.72064 0.57735 0.57735 0.57735 0 0.6 0.4 0.4
9 0 0.60648 0.0466371 1.23388 0.57735 0 0.57735 0.57735 0.2 0.3 0.7
10 0 0.800338 -0.364289 0.988193 0 0.57735 0.57735 0.57735 0.5 0.3 0.5
4 0 0.167949 -0.98085 2.08949 0.662366 -0.0281863 0.0229426 0.748298 0.2 0.4 0.3
5 0 0.463705 -0.780338 2.4252 0.360149 0.0513615 0.0724224 0.92866 0.3 0.4 0.2
6 0 -0.446295 0.090621 2.46689 0.707107 0 0 0.707107 0.5 0.5 0.2
7 0 -0.0337707 0.209799 2.07821 0.707107 0 0.707107 0 0.5 0.2 0.5
ITEM: TIMESTEP
13
ITEM: NUMBER OF ATOMS
10
ITEM: BOX BOUNDS pp pp pp
-2.0000000000000000e+01 2.0000000000000000e+01
-2.0000000000000000e+01 2.0000000000000000e+01
-2.0000000000000000e+01 2.0000000000000000e+01
ITEM: ATOMS id type x y z quatw quati quatj quatk shapex shapey shapez
1 0 -0.33741 -0.43709 0.645068 1 0 0 0 0.3 0.3 0.7
2 0 -0.321424 -0.713774 1.18174 0.923785 0.382911 0 0 0.5 0.6 0.5
3 0 -0.130366 -0.914716 1.62581 0.923785 0 0.382911 0 0.2 0.5 0.5
8 0 0.329732 0.176578 1.72064 0.57735 0.57735 0.57735 0 0.6 0.4 0.4
9 0 0.606499 0.0466046 1.23395 0.57735 0 0.57735 0.57735 0.2 0.3 0.7
10 0 0.800327 -0.364271 0.988156 0 0.57735 0.57735 0.57735 0.5 0.3 0.5
4 0 0.167948 -0.98085 2.08949 0.662366 -0.0281863 0.0229426 0.748298 0.2 0.4 0.3
5 0 0.463705 -0.780338 2.4252 0.360149 0.0513615 0.0724224 0.92866 0.3 0.4 0.2
6 0 -0.446295 0.090621 2.46689 0.707107 0 0 0.707107 0.5 0.5 0.2
7 0 -0.0337707 0.2098 2.07821 0.707107 0 0.707107 0 0.5 0.2 0.5
ITEM: TIMESTEP
14
ITEM: NUMBER OF ATOMS
10
ITEM: BOX BOUNDS pp pp pp
-2.0000000000000000e+01 2.0000000000000000e+01
-2.0000000000000000e+01 2.0000000000000000e+01
-2.0000000000000000e+01 2.0000000000000000e+01
ITEM: ATOMS id type x y z quatw quati quatj quatk shapex shapey shapez
1 0 -0.33741 -0.43709 0.645067 1 0 0 0 0.3 0.3 0.7
2 0 -0.321424 -0.713774 1.18174 0.923785 0.382911 0 0 0.5 0.6 0.5
3 0 -0.130366 -0.914717 1.62581 0.923785 0 0.382911 0 0.2 0.5 0.5
8 0 0.329732 0.176578 1.72064 0.57735 0.57735 0.57735 0 0.6 0.4 0.4
9 0 0.606519 0.0465695 1.23402 0.57735 0 0.57735 0.57735 0.2 0.3 0.7
10 0 0.800316 -0.364252 0.988117 0 0.57735 0.57735 0.57735 0.5 0.3 0.5
4 0 0.167948 -0.98085 2.08949 0.662366 -0.0281863 0.0229426 0.748298 0.2 0.4 0.3
5 0 0.463705 -0.780338 2.4252 0.360149 0.0513615 0.0724224 0.92866 0.3 0.4 0.2
6 0 -0.446295 0.0906209 2.46689 0.707107 0 0 0.707107 0.5 0.5 0.2
7 0 -0.0337707 0.2098 2.07821 0.707107 0 0.707107 0 0.5 0.2 0.5
ITEM: TIMESTEP
15
ITEM: NUMBER OF ATOMS
10
ITEM: BOX BOUNDS pp pp pp
-2.0000000000000000e+01 2.0000000000000000e+01
-2.0000000000000000e+01 2.0000000000000000e+01
-2.0000000000000000e+01 2.0000000000000000e+01
ITEM: ATOMS id type x y z quatw quati quatj quatk shapex shapey shapez
1 0 -0.33741 -0.43709 0.645067 1 0 0 0 0.3 0.3 0.7
2 0 -0.321424 -0.713774 1.18174 0.923785 0.382911 0 0 0.5 0.6 0.5
3 0 -0.130366 -0.914717 1.62581 0.923785 0 0.382911 0 0.2 0.5 0.5
8 0 0.329732 0.176578 1.72064 0.57735 0.57735 0.57735 0 0.6 0.4 0.4
9 0 0.606541 0.046532 1.23409 0.57735 0 0.57735 0.57735 0.2 0.3 0.7
10 0 0.800303 -0.364231 0.988075 0 0.57735 0.57735 0.57735 0.5 0.3 0.5
4 0 0.167948 -0.98085 2.08949 0.662366 -0.0281863 0.0229426 0.748298 0.2 0.4 0.3
5 0 0.463706 -0.780339 2.4252 0.360149 0.0513615 0.0724224 0.92866 0.3 0.4 0.2
6 0 -0.446295 0.0906208 2.46689 0.707107 0 0 0.707107 0.5 0.5 0.2
7 0 -0.0337707 0.2098 2.07821 0.707107 0 0.707107 0 0.5 0.2 0.5
ITEM: TIMESTEP
16
ITEM: NUMBER OF ATOMS
10
ITEM: BOX BOUNDS pp pp pp
-2.0000000000000000e+01 2.0000000000000000e+01
-2.0000000000000000e+01 2.0000000000000000e+01
-2.0000000000000000e+01 2.0000000000000000e+01
ITEM: ATOMS id type x y z quatw quati quatj quatk shapex shapey shapez
1 0 -0.337409 -0.43709 0.645067 1 0 0 0 0.3 0.3 0.7
2 0 -0.321424 -0.713774 1.18174 0.923785 0.382911 0 0 0.5 0.6 0.5
3 0 -0.130366 -0.914717 1.62582 0.923785 0 0.382911 0 0.2 0.5 0.5
8 0 0.329732 0.176578 1.72064 0.57735 0.57735 0.57735 0 0.6 0.4 0.4
9 0 0.606565 0.0464919 1.23417 0.57735 0 0.57735 0.57735 0.2 0.3 0.7
10 0 0.80029 -0.364208 0.988031 0 0.57735 0.57735 0.57735 0.5 0.3 0.5
4 0 0.167948 -0.98085 2.08949 0.662366 -0.0281863 0.0229426 0.748298 0.2 0.4 0.3
5 0 0.463706 -0.780339 2.4252 0.360149 0.0513615 0.0724224 0.92866 0.3 0.4 0.2
6 0 -0.446295 0.0906208 2.46689 0.707107 0 0 0.707107 0.5 0.5 0.2
7 0 -0.0337708 0.2098 2.07821 0.707107 0 0.707107 0 0.5 0.2 0.5
ITEM: TIMESTEP
17
ITEM: NUMBER OF ATOMS
10
ITEM: BOX BOUNDS pp pp pp
-2.0000000000000000e+01 2.0000000000000000e+01
-2.0000000000000000e+01 2.0000000000000000e+01
-2.0000000000000000e+01 2.0000000000000000e+01
ITEM: ATOMS id type x y z quatw quati quatj quatk shapex shapey shapez
1 0 -0.337409 -0.43709 0.645067 1 0 0 0 0.3 0.3 0.7
2 0 -0.321424 -0.713774 1.18174 0.923785 0.382911 0 0 0.5 0.6 0.5
3 0 -0.130366 -0.914718 1.62582 0.923785 0 0.382911 0 0.2 0.5 0.5
8 0 0.329732 0.176579 1.72064 0.57735 0.57735 0.57735 0 0.6 0.4 0.4
9 0 0.60659 0.0464494 1.23426 0.57735 0 0.57735 0.57735 0.2 0.3 0.7
10 0 0.800276 -0.364185 0.987983 0 0.57735 0.57735 0.57735 0.5 0.3 0.5
4 0 0.167947 -0.98085 2.08949 0.662366 -0.0281863 0.0229426 0.748298 0.2 0.4 0.3
5 0 0.463706 -0.780339 2.4252 0.360149 0.0513615 0.0724224 0.92866 0.3 0.4 0.2
6 0 -0.446295 0.0906207 2.46689 0.707107 0 0 0.707107 0.5 0.5 0.2
7 0 -0.0337708 0.2098 2.07821 0.707107 0 0.707107 0 0.5 0.2 0.5
ITEM: TIMESTEP
18
ITEM: NUMBER OF ATOMS
10
ITEM: BOX BOUNDS pp pp pp
-2.0000000000000000e+01 2.0000000000000000e+01
-2.0000000000000000e+01 2.0000000000000000e+01
-2.0000000000000000e+01 2.0000000000000000e+01
ITEM: ATOMS id type x y z quatw quati quatj quatk shapex shapey shapez
1 0 -0.337409 -0.43709 0.645067 1 0 0 0 0.3 0.3 0.7
2 0 -0.321424 -0.713774 1.18174 0.923785 0.382911 0 0 0.5 0.6 0.5
3 0 -0.130366 -0.914718 1.62582 0.923785 0 0.382911 0 0.2 0.5 0.5
8 0 0.329732 0.176579 1.72064 0.57735 0.57735 0.57735 0 0.6 0.4 0.4
9 0 0.606617 0.0464044 1.23435 0.57735 0 0.57735 0.57735 0.2 0.3 0.7
10 0 0.800261 -0.36416 0.987933 0 0.57735 0.57735 0.57735 0.5 0.3 0.5
4 0 0.167947 -0.98085 2.08949 0.662366 -0.0281863 0.0229426 0.748298 0.2 0.4 0.3
5 0 0.463706 -0.780339 2.4252 0.360149 0.0513615 0.0724224 0.92866 0.3 0.4 0.2
6 0 -0.446295 0.0906207 2.46689 0.707107 0 0 0.707107 0.5 0.5 0.2
7 0 -0.0337708 0.2098 2.07821 0.707107 0 0.707107 0 0.5 0.2 0.5
ITEM: TIMESTEP
19
ITEM: NUMBER OF ATOMS
10
ITEM: BOX BOUNDS pp pp pp
-2.0000000000000000e+01 2.0000000000000000e+01
-2.0000000000000000e+01 2.0000000000000000e+01
-2.0000000000000000e+01 2.0000000000000000e+01
ITEM: ATOMS id type x y z quatw quati quatj quatk shapex shapey shapez
1 0 -0.337408 -0.43709 0.645067 1 0 0 0 0.3 0.3 0.7
2 0 -0.321424 -0.713773 1.18174 0.923785 0.382911 0 0 0.5 0.6 0.5
3 0 -0.130366 -0.914719 1.62582 0.923785 0 0.382911 0 0.2 0.5 0.5
8 0 0.329732 0.176579 1.72064 0.57735 0.57735 0.57735 0 0.6 0.4 0.4
9 0 0.606645 0.046357 1.23444 0.57735 0 0.57735 0.57735 0.2 0.3 0.7
10 0 0.800246 -0.364133 0.987879 0 0.57735 0.57735 0.57735 0.5 0.3 0.5
4 0 0.167947 -0.98085 2.08949 0.662366 -0.0281863 0.0229426 0.748298 0.2 0.4 0.3
5 0 0.463706 -0.78034 2.4252 0.360149 0.0513615 0.0724224 0.92866 0.3 0.4 0.2
6 0 -0.446295 0.0906206 2.46689 0.707107 0 0 0.707107 0.5 0.5 0.2
7 0 -0.0337708 0.2098 2.07821 0.707107 0 0.707107 0 0.5 0.2 0.5
ITEM: TIMESTEP
20
ITEM: NUMBER OF ATOMS
10
ITEM: BOX BOUNDS pp pp pp
-2.0000000000000000e+01 2.0000000000000000e+01
-2.0000000000000000e+01 2.0000000000000000e+01
-2.0000000000000000e+01 2.0000000000000000e+01
ITEM: ATOMS id type x y z quatw quati quatj quatk shapex shapey shapez
1 0 -0.337408 -0.43709 0.645067 1 0 0 0 0.3 0.3 0.7
2 0 -0.321423 -0.713773 1.18174 0.923785 0.382911 0 0 0.5 0.6 0.5
3 0 -0.130366 -0.914719 1.62582 0.923785 0 0.382911 0 0.2 0.5 0.5
8 0 0.329731 0.176579 1.72064 0.57735 0.57735 0.57735 0 0.6 0.4 0.4
9 0 0.606674 0.0463071 1.23454 0.57735 0 0.57735 0.57735 0.2 0.3 0.7
10 0 0.800229 -0.364105 0.987824 0 0.57735 0.57735 0.57735 0.5 0.3 0.5
4 0 0.167947 -0.98085 2.08949 0.662366 -0.0281863 0.0229426 0.748298 0.2 0.4 0.3
5 0 0.463706 -0.78034 2.4252 0.360149 0.0513615 0.0724224 0.92866 0.3 0.4 0.2
6 0 -0.446295 0.0906205 2.46689 0.707107 0 0 0.707107 0.5 0.5 0.2
7 0 -0.0337708 0.2098 2.07821 0.707107 0 0.707107 0 0.5 0.2 0.5
ITEM: TIMESTEP
21
ITEM: NUMBER OF ATOMS
10
ITEM: BOX BOUNDS pp pp pp
-2.0000000000000000e+01 2.0000000000000000e+01
-2.0000000000000000e+01 2.0000000000000000e+01
-2.0000000000000000e+01 2.0000000000000000e+01
ITEM: ATOMS id type x y z quatw quati quatj quatk shapex shapey shapez
1 0 -0.337408 -0.437091 0.645067 1 0 0 0 0.3 0.3 0.7
2 0 -0.321423 -0.713773 1.18174 0.923785 0.382911 0 0 0.5 0.6 0.5
3 0 -0.130366 -0.91472 1.62582 0.923785 0 0.382911 0 0.2 0.5 0.5
8 0 0.329731 0.176579 1.72064 0.57735 0.57735 0.57735 0 0.6 0.4 0.4
9 0 0.606705 0.0462548 1.23465 0.57735 0 0.57735 0.57735 0.2 0.3 0.7
10 0 0.800212 -0.364076 0.987765 0 0.57735 0.57735 0.57735 0.5 0.3 0.5
4 0 0.167946 -0.98085 2.08949 0.662366 -0.0281863 0.0229426 0.748298 0.2 0.4 0.3
5 0 0.463706 -0.78034 2.4252 0.360149 0.0513615 0.0724224 0.92866 0.3 0.4 0.2
6 0 -0.446295 0.0906205 2.46689 0.707107 0 0 0.707107 0.5 0.5 0.2
7 0 -0.0337709 0.209801 2.07821 0.707107 0 0.707107 0 0.5 0.2 0.5
ITEM: TIMESTEP
22
ITEM: NUMBER OF ATOMS
10
ITEM: BOX BOUNDS pp pp pp
-2.0000000000000000e+01 2.0000000000000000e+01
-2.0000000000000000e+01 2.0000000000000000e+01
-2.0000000000000000e+01 2.0000000000000000e+01
ITEM: ATOMS id type x y z quatw quati quatj quatk shapex shapey shapez
1 0 -0.337408 -0.437091 0.645066 1 0 0 0 0.3 0.3 0.7
2 0 -0.321423 -0.713773 1.18174 0.923785 0.382911 0 0 0.5 0.6 0.5
3 0 -0.130366 -0.914721 1.62582 0.923785 0 0.382911 0 0.2 0.5 0.5
8 0 0.329731 0.176579 1.72064 0.57735 0.57735 0.57735 0 0.6 0.4 0.4
9 0 0.606737 0.0462002 1.23476 0.57735 0 0.57735 0.57735 0.2 0.3 0.7
10 0 0.800194 -0.364046 0.987704 0 0.57735 0.57735 0.57735 0.5 0.3 0.5
4 0 0.167946 -0.980851 2.08949 0.662366 -0.0281863 0.0229426 0.748298 0.2 0.4 0.3
5 0 0.463706 -0.78034 2.4252 0.360149 0.0513615 0.0724224 0.92866 0.3 0.4 0.2
6 0 -0.446295 0.0906204 2.46689 0.707107 0 0 0.707107 0.5 0.5 0.2
7 0 -0.0337709 0.209801 2.07821 0.707107 0 0.707107 0 0.5 0.2 0.5
ITEM: TIMESTEP
23
ITEM: NUMBER OF ATOMS
10
ITEM: BOX BOUNDS pp pp pp
-2.0000000000000000e+01 2.0000000000000000e+01
-2.0000000000000000e+01 2.0000000000000000e+01
-2.0000000000000000e+01 2.0000000000000000e+01
ITEM: ATOMS id type x y z quatw quati quatj quatk shapex shapey shapez
1 0 -0.337407 -0.437091 0.645066 1 0 0 0 0.3 0.3 0.7
2 0 -0.321423 -0.713773 1.18174 0.923785 0.382911 0 0 0.5 0.6 0.5
3 0 -0.130366 -0.914721 1.62582 0.923785 0 0.382911 0 0.2 0.5 0.5
8 0 0.329731 0.176579 1.72064 0.57735 0.57735 0.57735 0 0.6 0.4 0.4
9 0 0.606771 0.0461431 1.23487 0.57735 0 0.57735 0.57735 0.2 0.3 0.7
10 0 0.800175 -0.364014 0.98764 0 0.57735 0.57735 0.57735 0.5 0.3 0.5
4 0 0.167946 -0.980851 2.08949 0.662366 -0.0281863 0.0229426 0.748298 0.2 0.4 0.3
5 0 0.463706 -0.780341 2.4252 0.360149 0.0513615 0.0724224 0.92866 0.3 0.4 0.2
6 0 -0.446295 0.0906204 2.46689 0.707107 0 0 0.707107 0.5 0.5 0.2
7 0 -0.0337709 0.209801 2.07821 0.707107 0 0.707107 0 0.5 0.2 0.5
ITEM: TIMESTEP
24
ITEM: NUMBER OF ATOMS
10
ITEM: BOX BOUNDS pp pp pp
-2.0000000000000000e+01 2.0000000000000000e+01
-2.0000000000000000e+01 2.0000000000000000e+01
-2.0000000000000000e+01 2.0000000000000000e+01
ITEM: ATOMS id type x y z quatw quati quatj quatk shapex shapey shapez
1 0 -0.337407 -0.437091 0.645066 1 0 0 0 0.3 0.3 0.7
2 0 -0.321423 -0.713773 1.18174 0.923785 0.382911 0 0 0.5 0.6 0.5
3 0 -0.130366 -0.914722 1.62582 0.923785 0 0.382911 0 0.2 0.5 0.5
8 0 0.329731 0.17658 1.72064 0.57735 0.57735 0.57735 0 0.6 0.4 0.4
9 0 0.606806 0.0460838 1.23499 0.57735 0 0.57735 0.57735 0.2 0.3 0.7
10 0 0.800156 -0.363981 0.987573 0 0.57735 0.57735 0.57735 0.5 0.3 0.5
4 0 0.167946 -0.980851 2.08949 0.662366 -0.0281863 0.0229426 0.748298 0.2 0.4 0.3
5 0 0.463707 -0.780341 2.4252 0.360149 0.0513615 0.0724224 0.92866 0.3 0.4 0.2
6 0 -0.446295 0.0906203 2.46689 0.707107 0 0 0.707107 0.5 0.5 0.2
7 0 -0.0337709 0.209801 2.07821 0.707107 0 0.707107 0 0.5 0.2 0.5
ITEM: TIMESTEP
25
ITEM: NUMBER OF ATOMS
10
ITEM: BOX BOUNDS pp pp pp
-2.0000000000000000e+01 2.0000000000000000e+01
-2.0000000000000000e+01 2.0000000000000000e+01
-2.0000000000000000e+01 2.0000000000000000e+01
ITEM: ATOMS id type x y z quatw quati quatj quatk shapex shapey shapez
1 0 -0.337407 -0.437091 0.645066 1 0 0 0 0.3 0.3 0.7
2 0 -0.321423 -0.713773 1.18174 0.923785 0.382911 0 0 0.5 0.6 0.5
3 0 -0.130366 -0.914723 1.62582 0.923785 0 0.382911 0 0.2 0.5 0.5
8 0 0.329731 0.17658 1.72064 0.57735 0.57735 0.57735 0 0.6 0.4 0.4
9 0 0.606843 0.0460221 1.23512 0.57735 0 0.57735 0.57735 0.2 0.3 0.7
10 0 0.800136 -0.363947 0.987504 0 0.57735 0.57735 0.57735 0.5 0.3 0.5
4 0 0.167945 -0.980851 2.08949 0.662366 -0.0281863 0.0229426 0.748298 0.2 0.4 0.3
5 0 0.463707 -0.780341 2.4252 0.360149 0.0513615 0.0724224 0.92866 0.3 0.4 0.2
6 0 -0.446295 0.0906202 2.46689 0.707107 0 0 0.707107 0.5 0.5 0.2
7 0 -0.033771 0.209801 2.07821 0.707107 0 0.707107 0 0.5 0.2 0.5
ITEM: TIMESTEP
26
ITEM: NUMBER OF ATOMS
10
ITEM: BOX BOUNDS pp pp pp
-2.0000000000000000e+01 2.0000000000000000e+01
-2.0000000000000000e+01 2.0000000000000000e+01
-2.0000000000000000e+01 2.0000000000000000e+01
ITEM: ATOMS id type x y z quatw quati quatj quatk shapex shapey shapez
1 0 -0.337406 -0.437091 0.645066 1 0 0 0 0.3 0.3 0.7
2 0 -0.321423 -0.713772 1.18174 0.923785 0.382911 0 0 0.5 0.6 0.5
3 0 -0.130365 -0.914723 1.62582 0.923785 0 0.382911 0 0.2 0.5 0.5
8 0 0.329731 0.17658 1.72064 0.57735 0.57735 0.57735 0 0.6 0.4 0.4
9 0 0.60688 0.0459581 1.23524 0.57735 0 0.57735 0.57735 0.2 0.3 0.7
10 0 0.800114 -0.363911 0.987433 0 0.57735 0.57735 0.57735 0.5 0.3 0.5
4 0 0.167945 -0.980851 2.08949 0.662366 -0.0281863 0.0229426 0.748298 0.2 0.4 0.3
5 0 0.463707 -0.780341 2.4252 0.360149 0.0513615 0.0724224 0.92866 0.3 0.4 0.2
6 0 -0.446295 0.0906202 2.46689 0.707107 0 0 0.707107 0.5 0.5 0.2
7 0 -0.033771 0.209801 2.07821 0.707107 0 0.707107 0 0.5 0.2 0.5
ITEM: TIMESTEP
27
ITEM: NUMBER OF ATOMS
10
ITEM: BOX BOUNDS pp pp pp
-2.0000000000000000e+01 2.0000000000000000e+01
-2.0000000000000000e+01 2.0000000000000000e+01
-2.0000000000000000e+01 2.0000000000000000e+01
ITEM: ATOMS id type x y z quatw quati quatj quatk shapex shapey shapez
1 0 -0.337406 -0.437091 0.645065 1 0 0 0 0.3 0.3 0.7
2 0 -0.321423 -0.713772 1.18174 0.923785 0.382911 0 0 0.5 0.6 0.5
3 0 -0.130365 -0.914724 1.62582 0.923785 0 0.382911 0 0.2 0.5 0.5
8 0 0.329731 0.17658 1.72064 0.57735 0.57735 0.57735 0 0.6 0.4 0.4
9 0 0.60692 0.0458918 1.23538 0.57735 0 0.57735 0.57735 0.2 0.3 0.7
10 0 0.800093 -0.363874 0.987358 0 0.57735 0.57735 0.57735 0.5 0.3 0.5
4 0 0.167945 -0.980851 2.08949 0.662366 -0.0281863 0.0229426 0.748298 0.2 0.4 0.3
5 0 0.463707 -0.780341 2.4252 0.360149 0.0513615 0.0724224 0.92866 0.3 0.4 0.2
6 0 -0.446295 0.0906201 2.46689 0.707107 0 0 0.707107 0.5 0.5 0.2
7 0 -0.033771 0.209802 2.07821 0.707107 0 0.707107 0 0.5 0.2 0.5
ITEM: TIMESTEP
28
ITEM: NUMBER OF ATOMS
10
ITEM: BOX BOUNDS pp pp pp
-2.0000000000000000e+01 2.0000000000000000e+01
-2.0000000000000000e+01 2.0000000000000000e+01
-2.0000000000000000e+01 2.0000000000000000e+01
ITEM: ATOMS id type x y z quatw quati quatj quatk shapex shapey shapez
1 0 -0.337406 -0.437091 0.645065 1 0 0 0 0.3 0.3 0.7
2 0 -0.321423 -0.713772 1.18174 0.923785 0.382911 0 0 0.5 0.6 0.5
3 0 -0.130365 -0.914725 1.62582 0.923785 0 0.382911 0 0.2 0.5 0.5
8 0 0.329731 0.17658 1.72064 0.57735 0.57735 0.57735 0 0.6 0.4 0.4
9 0 0.60696 0.0458233 1.23551 0.57735 0 0.57735 0.57735 0.2 0.3 0.7
10 0 0.80007 -0.363836 0.987282 0 0.57735 0.57735 0.57735 0.5 0.3 0.5
4 0 0.167944 -0.980851 2.08949 0.662366 -0.0281863 0.0229426 0.748298 0.2 0.4 0.3
5 0 0.463707 -0.780342 2.4252 0.360149 0.0513615 0.0724224 0.92866 0.3 0.4 0.2
6 0 -0.446295 0.0906201 2.46689 0.707107 0 0 0.707107 0.5 0.5 0.2
7 0 -0.033771 0.209802 2.07821 0.707107 0 0.707107 0 0.5 0.2 0.5
ITEM: TIMESTEP
29
ITEM: NUMBER OF ATOMS
10
ITEM: BOX BOUNDS pp pp pp
-2.0000000000000000e+01 2.0000000000000000e+01
-2.0000000000000000e+01 2.0000000000000000e+01
-2.0000000000000000e+01 2.0000000000000000e+01
ITEM: ATOMS id type x y z quatw quati quatj quatk shapex shapey shapez
1 0 -0.337405 -0.437091 0.645065 1 0 0 0 0.3 0.3 0.7
2 0 -0.321423 -0.713772 1.18174 0.923785 0.382911 0 0 0.5 0.6 0.5
3 0 -0.130365 -0.914726 1.62582 0.923785 0 0.382911 0 0.2 0.5 0.5
8 0 0.329731 0.17658 1.72064 0.57735 0.57735 0.57735 0 0.6 0.4 0.4
9 0 0.607002 0.0457526 1.23566 0.57735 0 0.57735 0.57735 0.2 0.3 0.7
10 0 0.800047 -0.363796 0.987202 0 0.57735 0.57735 0.57735 0.5 0.3 0.5
4 0 0.167944 -0.980851 2.08949 0.662366 -0.0281863 0.0229426 0.748298 0.2 0.4 0.3
5 0 0.463707 -0.780342 2.4252 0.360149 0.0513615 0.0724224 0.92866 0.3 0.4 0.2
6 0 -0.446295 0.09062 2.46689 0.707107 0 0 0.707107 0.5 0.5 0.2
7 0 -0.0337711 0.209802 2.07821 0.707107 0 0.707107 0 0.5 0.2 0.5
ITEM: TIMESTEP
30
ITEM: NUMBER OF ATOMS
10
ITEM: BOX BOUNDS pp pp pp
-2.0000000000000000e+01 2.0000000000000000e+01
-2.0000000000000000e+01 2.0000000000000000e+01
-2.0000000000000000e+01 2.0000000000000000e+01
ITEM: ATOMS id type x y z quatw quati quatj quatk shapex shapey shapez
1 0 -0.337405 -0.437091 0.645065 1 0 0 0 0.3 0.3 0.7
2 0 -0.321423 -0.713771 1.18174 0.923785 0.382911 0 0 0.5 0.6 0.5
3 0 -0.130365 -0.914727 1.62582 0.923785 0 0.382911 0 0.2 0.5 0.5
8 0 0.329731 0.17658 1.72064 0.57735 0.57735 0.57735 0 0.6 0.4 0.4
9 0 0.607045 0.0456796 1.2358 0.57735 0 0.57735 0.57735 0.2 0.3 0.7
10 0 0.800023 -0.363756 0.98712 0 0.57735 0.57735 0.57735 0.5 0.3 0.5
4 0 0.167944 -0.980851 2.08949 0.662366 -0.0281863 0.0229426 0.748298 0.2 0.4 0.3
5 0 0.463707 -0.780342 2.4252 0.360149 0.0513615 0.0724224 0.92866 0.3 0.4 0.2
6 0 -0.446295 0.0906199 2.46689 0.707107 0 0 0.707107 0.5 0.5 0.2
7 0 -0.0337711 0.209802 2.07821 0.707107 0 0.707107 0 0.5 0.2 0.5
ITEM: TIMESTEP
31
ITEM: NUMBER OF ATOMS
10
ITEM: BOX BOUNDS pp pp pp
-2.0000000000000000e+01 2.0000000000000000e+01