ITEM: TIMESTEP
0
ITEM: NUMBER OF ATOMS
10
ITEM: BOX BOUNDS pp pp pp
-2.0000000000000000e+01 2.0000000000000000e+01
-2.0000000000000000e+01 2.0000000000000000e+01
-2.0000000000000000e+01 2.0000000000000000e+01
ITEM: ATOMS id type x y z quatw quati quatj quatk shapex shapey shapez
1 1 -0.337415 -0.437088 0.645069 0.989028 0.0177923 -0.143377 0.0308276 1.17398 1.17398 0.7
2 2 -0.321426 -0.713774 1.18174 0.939687 0.0417417 -0.0233378 0.338675 1.17398 1.17398 0.7
3 3 -0.130364 -0.914714 1.62581 0.821011 0.0301214 0.017666 0.569843 1.17398 1.17398 0.7
8 2 0.329733 0.176576 1.72063 -0.104837 0.55089 -0.825009 0.0699281 1.17398 1.17398 0.7
9 3 0.60637 0.046826 1.2335 0.0777724 -0.372409 0.910305 -0.163118 1.17398 1.17398 0.7
10 4 0.800398 -0.364393 0.988403 0.162791 0.0271486 0.984933 -0.0516705 1.17398 1.17398 0.7
4 4 0.167951 -0.980851 2.08949 0.662366 -0.0281863 0.0229426 0.748298 1.17398 1.17398 0.7
5 1 0.463704 -0.780335 2.4252 0.360149 0.0513615 0.0724224 0.92866 1.17398 1.17398 0.7
6 4 -0.446295 0.0906216 2.46689 0.119412 0.924466 -0.353179 -0.0797971 1.17398 1.17398 0.7
7 1 -0.0337705 0.209798 2.07821 -0.179491 0.741288 -0.637909 0.106517 1.17398 1.17398 0.7
ITEM: TIMESTEP
1000
ITEM: NUMBER OF ATOMS
10
ITEM: BOX BOUNDS pp pp pp
-2.0000000000000000e+01 2.0000000000000000e+01
-2.0000000000000000e+01 2.0000000000000000e+01
-2.0000000000000000e+01 2.0000000000000000e+01
ITEM: ATOMS id type x y z quatw quati quatj quatk shapex shapey shapez
1 1 -0.337094 -0.437225 0.645039 0.989026 0.0178076 -0.143384 0.0308374 1.17398 1.17398 0.7
2 2 -0.321258 -0.713824 1.18189 0.93969 0.0417386 -0.023338 0.338668 1.17398 1.17398 0.7
3 3 -0.130593 -0.914631 1.62572 0.821012 0.03015 0.0176779 0.56984 1.17398 1.17398 0.7
8 2 0.329661 0.176748 1.72102 -0.104849 0.550884 -0.82501 0.0699463 1.17398 1.17398 0.7
9 3 0.606195 0.0467477 1.23356 0.0777547 -0.372398 0.91031 -0.163127 1.17398 1.17398 0.7
10 4 0.800587 -0.3645 0.988529 0.162776 0.0271439 0.984935 -0.0516718 1.17398 1.17398 0.7
4 4 0.167729 -0.980801 2.08942 0.662367 -0.0281771 0.0229585 0.748297 1.17398 1.17398 0.7
5 1 0.463786 -0.780591 2.42537 0.36014 0.0513644 0.0724227 0.928664 1.17398 1.17398 0.7
6 4 -0.446259 0.0905729 2.46692 0.119408 0.924471 -0.35317 -0.0797829 1.17398 1.17398 0.7
7 1 -0.0337792 0.209846 2.07818 -0.179511 0.741287 -0.637904 0.106526 1.17398 1.17398 0.7
ITEM: TIMESTEP
2000
ITEM: NUMBER OF ATOMS
10
ITEM: BOX BOUNDS pp pp pp
-2.0000000000000000e+01 2.0000000000000000e+01
-2.0000000000000000e+01 2.0000000000000000e+01
-2.0000000000000000e+01 2.0000000000000000e+01
ITEM: ATOMS id type x y z quatw quati quatj quatk shapex shapey shapez
1 1 -0.336774 -0.437361 0.64501 0.989025 0.017823 -0.143391 0.0308471 1.17398 1.17398 0.7
2 2 -0.32109 -0.713872 1.18205 0.939693 0.0417362 -0.0233397 0.338661 1.17398 1.17398 0.7
3 3 -0.130821 -0.914548 1.62563 0.821012 0.030178 0.0176906 0.569838 1.17398 1.17398 0.7
8 2 0.32959 0.17692 1.72141 -0.10486 0.550877 -0.825011 0.0699648 1.17398 1.17398 0.7
9 3 0.606021 0.0466694 1.23362 0.0777363 -0.372387 0.910314 -0.163136 1.17398 1.17398 0.7
10 4 0.800775 -0.364606 0.988655 0.162761 0.0271391 0.984938 -0.0516732 1.17398 1.17398 0.7
4 4 0.167507 -0.980752 2.08935 0.662369 -0.0281678 0.0229745 0.748296 1.17398 1.17398 0.7
5 1 0.463868 -0.780847 2.42554 0.36013 0.0513669 0.0724232 0.928667 1.17398 1.17398 0.7
6 4 -0.446223 0.0905243 2.46695 0.119403 0.924477 -0.353162 -0.0797687 1.17398 1.17398 0.7
7 1 -0.0337887 0.209894 2.07815 -0.179533 0.741285 -0.637898 0.106535 1.17398 1.17398 0.7
ITEM: TIMESTEP
3000
ITEM: NUMBER OF ATOMS
10
ITEM: BOX BOUNDS pp pp pp
-2.0000000000000000e+01 2.0000000000000000e+01
-2.0000000000000000e+01 2.0000000000000000e+01
-2.0000000000000000e+01 2.0000000000000000e+01
ITEM: ATOMS id type x y z quatw quati quatj quatk shapex shapey shapez
1 1 -0.336454 -0.437497 0.64498 0.989023 0.0178383 -0.143397 0.0308568 1.17398 1.17398 0.7
2 2 -0.320923 -0.71392 1.18221 0.939696 0.0417343 -0.0233431 0.338653 1.17398 1.17398 0.7
3 3 -0.13105 -0.914465 1.62554 0.821012 0.0302053 0.0177044 0.569836 1.17398 1.17398 0.7
8 2 0.32952 0.177092 1.7218 -0.104871 0.55087 -0.825013 0.0699837 1.17398 1.17398 0.7
9 3 0.605846 0.0465909 1.23367 0.0777172 -0.372375 0.910319 -0.163146 1.17398 1.17398 0.7
10 4 0.800964 -0.364713 0.988781 0.162747 0.0271343 0.98494 -0.0516745 1.17398 1.17398 0.7
4 4 0.167285 -0.980703 2.08928 0.66237 -0.0281587 0.0229906 0.748294 1.17398 1.17398 0.7
5 1 0.463951 -0.781103 2.42572 0.36012 0.0513689 0.0724239 0.928671 1.17398 1.17398 0.7
6 4 -0.446187 0.0904756 2.46698 0.119398 0.924482 -0.353153 -0.0797545 1.17398 1.17398 0.7
7 1 -0.0337991 0.209941 2.07813 -0.179555 0.741285 -0.637892 0.106542 1.17398 1.17398 0.7
ITEM: TIMESTEP
4000
ITEM: NUMBER OF ATOMS
10
ITEM: BOX BOUNDS pp pp pp
-2.0000000000000000e+01 2.0000000000000000e+01
-2.0000000000000000e+01 2.0000000000000000e+01
-2.0000000000000000e+01 2.0000000000000000e+01
ITEM: ATOMS id type x y z quatw quati quatj quatk shapex shapey shapez
1 1 -0.336133 -0.437634 0.644951 0.989022 0.0178536 -0.143404 0.0308666 1.17398 1.17398 0.7
2 2 -0.320756 -0.713968 1.18236 0.939699 0.0417331 -0.023348 0.338643 1.17398 1.17398 0.7
3 3 -0.131278 -0.914383 1.62545 0.821012 0.0302319 0.0177191 0.569835 1.17398 1.17398 0.7
8 2 0.32945 0.177264 1.72219 -0.104881 0.550863 -0.825015 0.0700029 1.17398 1.17398 0.7
9 3 0.605672 0.0465122 1.23373 0.0776974 -0.372364 0.910323 -0.163156 1.17398 1.17398 0.7
10 4 0.801153 -0.36482 0.988907 0.162732 0.0271296 0.984943 -0.0516759 1.17398 1.17398 0.7
4 4 0.167063 -0.980655 2.08921 0.662371 -0.0281496 0.0230067 0.748293 1.17398 1.17398 0.7
5 1 0.464033 -0.781359 2.42589 0.360109 0.0513704 0.0724247 0.928675 1.17398 1.17398 0.7
6 4 -0.446151 0.0904269 2.46701 0.119393 0.924487 -0.353144 -0.0797403 1.17398 1.17398 0.7
7 1 -0.0338104 0.209989 2.0781 -0.179578 0.741285 -0.637884 0.106548 1.17398 1.17398 0.7
ITEM: TIMESTEP
5000
ITEM: NUMBER OF ATOMS
10
ITEM: BOX BOUNDS pp pp pp
-2.0000000000000000e+01 2.0000000000000000e+01
-2.0000000000000000e+01 2.0000000000000000e+01
-2.0000000000000000e+01 2.0000000000000000e+01
ITEM: ATOMS id type x y z quatw quati quatj quatk shapex shapey shapez
1 1 -0.335813 -0.43777 0.644922 0.98902 0.017869 -0.143411 0.0308763 1.17398 1.17398 0.7
2 2 -0.32059 -0.714015 1.18252 0.939703 0.0417325 -0.0233545 0.338633 1.17398 1.17398 0.7
3 3 -0.131506 -0.914301 1.62536 0.821011 0.0302579 0.0177348 0.569834 1.17398 1.17398 0.7
8 2 0.329381 0.177436 1.72258 -0.10489 0.550854 -0.825018 0.0700225 1.17398 1.17398 0.7
9 3 0.605499 0.0464335 1.23378 0.0776769 -0.372351 0.910328 -0.163166 1.17398 1.17398 0.7
10 4 0.801341 -0.364926 0.989033 0.162717 0.0271248 0.984945 -0.0516772 1.17398 1.17398 0.7
4 4 0.16684 -0.980606 2.08914 0.662373 -0.0281405 0.0230228 0.748291 1.17398 1.17398 0.7
5 1 0.464117 -0.781614 2.42606 0.360098 0.0513714 0.0724257 0.928679 1.17398 1.17398 0.7
6 4 -0.446115 0.0903782 2.46704 0.119389 0.924492 -0.353135 -0.0797261 1.17398 1.17398 0.7
7 1 -0.0338225 0.210037 2.07808 -0.179602 0.741286 -0.637875 0.106553 1.17398 1.17398 0.7
ITEM: TIMESTEP
6000
ITEM: NUMBER OF ATOMS
10
ITEM: BOX BOUNDS pp pp pp
-2.0000000000000000e+01 2.0000000000000000e+01
-2.0000000000000000e+01 2.0000000000000000e+01
-2.0000000000000000e+01 2.0000000000000000e+01
ITEM: ATOMS id type x y z quatw quati quatj quatk shapex shapey shapez
1 1 -0.335493 -0.437906 0.644892 0.989019 0.0178843 -0.143417 0.030886 1.17398 1.17398 0.7
2 2 -0.320424 -0.714062 1.18267 0.939707 0.0417325 -0.0233627 0.338621 1.17398 1.17398 0.7
3 3 -0.131733 -0.91422 1.62527 0.82101 0.0302831 0.0177515 0.569834 1.17398 1.17398 0.7
8 2 0.329313 0.177608 1.72297 -0.104899 0.550845 -0.825021 0.0700425 1.17398 1.17398 0.7
9 3 0.605325 0.0463546 1.23384 0.0776558 -0.372339 0.910333 -0.163176 1.17398 1.17398 0.7
10 4 0.80153 -0.365033 0.989159 0.162702 0.02712 0.984948 -0.0516785 1.17398 1.17398 0.7
4 4 0.166618 -0.980558 2.08908 0.662375 -0.0281316 0.023039 0.74829 1.17398 1.17398 0.7
5 1 0.4642 -0.78187 2.42624 0.360087 0.0513719 0.0724269 0.928683 1.17398 1.17398 0.7
6 4 -0.446079 0.0903295 2.46707 0.119384 0.924498 -0.353126 -0.0797119 1.17398 1.17398 0.7
7 1 -0.0338356 0.210085 2.07805 -0.179627 0.741288 -0.637865 0.106557 1.17398 1.17398 0.7
ITEM: TIMESTEP
7000
ITEM: NUMBER OF ATOMS
10
ITEM: BOX BOUNDS pp pp pp
-2.0000000000000000e+01 2.0000000000000000e+01
-2.0000000000000000e+01 2.0000000000000000e+01
-2.0000000000000000e+01 2.0000000000000000e+01
ITEM: ATOMS id type x y z quatw quati quatj quatk shapex shapey shapez
1 1 -0.335172 -0.438043 0.644863 0.989017 0.0178996 -0.143424 0.0308957 1.17398 1.17398 0.7
2 2 -0.32026 -0.714108 1.18282 0.939711 0.0417332 -0.0233725 0.338608 1.17398 1.17398 0.7
3 3 -0.13196 -0.91414 1.62518 0.821008 0.0303076 0.0177692 0.569835 1.17398 1.17398 0.7
8 2 0.329246 0.17778 1.72336 -0.104907 0.550836 -0.825025 0.0700629 1.17398 1.17398 0.7
9 3 0.605152 0.0462756 1.23389 0.0776339 -0.372326 0.910339 -0.163186 1.17398 1.17398 0.7
10 4 0.801719 -0.36514 0.989285 0.162687 0.0271153 0.98495 -0.0516799 1.17398 1.17398 0.7
4 4 0.166395 -0.98051 2.08901 0.662377 -0.0281227 0.0230553 0.748288 1.17398 1.17398 0.7
5 1 0.464284 -0.782125 2.42641 0.360074 0.051372 0.0724282 0.928688 1.17398 1.17398 0.7
6 4 -0.446043 0.0902808 2.46709 0.119379 0.924503 -0.353117 -0.0796977 1.17398 1.17398 0.7
7 1 -0.0338495 0.210133 2.07803 -0.179654 0.74129 -0.637855 0.106559 1.17398 1.17398 0.7
ITEM: TIMESTEP
8000
ITEM: NUMBER OF ATOMS
10
ITEM: BOX BOUNDS pp pp pp
-2.0000000000000000e+01 2.0000000000000000e+01
-2.0000000000000000e+01 2.0000000000000000e+01
-2.0000000000000000e+01 2.0000000000000000e+01
ITEM: ATOMS id type x y z quatw quati quatj quatk shapex shapey shapez
1 1 -0.334852 -0.438179 0.644833 0.989015 0.017915 -0.143431 0.0309055 1.17398 1.17398 0.7
2 2 -0.320095 -0.714153 1.18298 0.939716 0.0417345 -0.023384 0.338594 1.17398 1.17398 0.7
3 3 -0.132186 -0.914059 1.62509 0.821006 0.0303314 0.017788 0.569836 1.17398 1.17398 0.7
8 2 0.329179 0.177952 1.72375 -0.104915 0.550825 -0.825029 0.0700838 1.17398 1.17398 0.7
9 3 0.604979 0.0461965 1.23394 0.0776114 -0.372313 0.910344 -0.163197 1.17398 1.17398 0.7
10 4 0.801908 -0.365246 0.989411 0.162673 0.0271105 0.984953 -0.0516812 1.17398 1.17398 0.7
4 4 0.166173 -0.980463 2.08894 0.662379 -0.0281139 0.0230716 0.748286 1.17398 1.17398 0.7
5 1 0.464368 -0.78238 2.42658 0.360062 0.0513716 0.0724297 0.928693 1.17398 1.17398 0.7
6 4 -0.446007 0.0902321 2.46712 0.119374 0.924508 -0.353108 -0.0796835 1.17398 1.17398 0.7
7 1 -0.0338644 0.210181 2.078 -0.179681 0.741293 -0.637843 0.106561 1.17398 1.17398 0.7
ITEM: TIMESTEP
9000
ITEM: NUMBER OF ATOMS
10
ITEM: BOX BOUNDS pp pp pp
-2.0000000000000000e+01 2.0000000000000000e+01
-2.0000000000000000e+01 2.0000000000000000e+01
-2.0000000000000000e+01 2.0000000000000000e+01
ITEM: ATOMS id type x y z quatw quati quatj quatk shapex shapey shapez
1 1 -0.334532 -0.438315 0.644804 0.989014 0.0179303 -0.143438 0.0309152 1.17398 1.17398 0.7
2 2 -0.319932 -0.714198 1.18313 0.939721 0.0417365 -0.0233971 0.338579 1.17398 1.17398 0.7
3 3 -0.132413 -0.91398 1.62501 0.821003 0.0303545 0.0178079 0.569838 1.17398 1.17398 0.7
8 2 0.329112 0.178124 1.72414 -0.104922 0.550814 -0.825034 0.070105 1.17398 1.17398 0.7
9 3 0.604806 0.0461173 1.234 0.0775883 -0.3723 0.910349 -0.163208 1.17398 1.17398 0.7
10 4 0.802096 -0.365353 0.989537 0.162658 0.0271057 0.984955 -0.0516826 1.17398 1.17398 0.7
4 4 0.16595 -0.980415 2.08887 0.662381 -0.0281052 0.023088 0.748283 1.17398 1.17398 0.7
5 1 0.464453 -0.782634 2.42676 0.360048 0.0513708 0.0724314 0.928698 1.17398 1.17398 0.7
6 4 -0.445971 0.0901835 2.46715 0.119369 0.924513 -0.353099 -0.0796693 1.17398 1.17398 0.7
7 1 -0.0338801 0.21023 2.07798 -0.179709 0.741297 -0.637831 0.106561 1.17398 1.17398 0.7
ITEM: TIMESTEP
10000
ITEM: NUMBER OF ATOMS
10
ITEM: BOX BOUNDS pp pp pp
-2.0000000000000000e+01 2.0000000000000000e+01
-2.0000000000000000e+01 2.0000000000000000e+01
-2.0000000000000000e+01 2.0000000000000000e+01
ITEM: ATOMS id type x y z quatw quati quatj quatk shapex shapey shapez
1 1 -0.334211 -0.438452 0.644775 0.989012 0.0179456 -0.143444 0.0309249 1.17398 1.17398 0.7
2 2 -0.319769 -0.714243 1.18328 0.939726 0.0417391 -0.023412 0.338563 1.17398 1.17398 0.7
3 3 -0.132638 -0.913901 1.62492 0.821 0.0303768 0.0178288 0.569841 1.17398 1.17398 0.7
8 2 0.329047 0.178296 1.72453 -0.104928 0.550802 -0.825039 0.0701267 1.17398 1.17398 0.7
9 3 0.604633 0.046038 1.23405 0.0775646 -0.372287 0.910355 -0.16322 1.17398 1.17398 0.7
10 4 0.802285 -0.36546 0.989664 0.162643 0.027101 0.984958 -0.0516839 1.17398 1.17398 0.7
4 4 0.165727 -0.980368 2.0888 0.662384 -0.0280965 0.0231045 0.748281 1.17398 1.17398 0.7
5 1 0.464538 -0.782889 2.42693 0.360035 0.0513695 0.0724332 0.928703 1.17398 1.17398 0.7
6 4 -0.445935 0.0901348 2.46718 0.119365 0.924519 -0.35309 -0.0796551 1.17398 1.17398 0.7
7 1 -0.0338968 0.210278 2.07796 -0.179739 0.741302 -0.637817 0.10656 1.17398 1.17398 0.7
ITEM: TIMESTEP
11000
ITEM: NUMBER OF ATOMS
10
ITEM: BOX BOUNDS pp pp pp
-2.0000000000000000e+01 2.0000000000000000e+01
-2.0000000000000000e+01 2.0000000000000000e+01
-2.0000000000000000e+01 2.0000000000000000e+01
ITEM: ATOMS id type x y z quatw quati quatj quatk shapex shapey shapez
1 1 -0.333891 -0.438588 0.644745 0.989011 0.017961 -0.143451 0.0309347 1.17398 1.17398 0.7
2 2 -0.319606 -0.714287 1.18343 0.939732 0.0417423 -0.0234286 0.338546 1.17398 1.17398 0.7
3 3 -0.132864 -0.913822 1.62483 0.820997 0.0303983 0.0178508 0.569844 1.17398 1.17398 0.7
8 2 0.328982 0.178468 1.72492 -0.104933 0.550789 -0.825045 0.0701489 1.17398 1.17398 0.7
9 3 0.604461 0.0459585 1.2341 0.0775403 -0.372273 0.91036 -0.163231 1.17398 1.17398 0.7
10 4 0.802474 -0.365566 0.98979 0.162628 0.0270962 0.98496 -0.0516853 1.17398 1.17398 0.7
4 4 0.165504 -0.980321 2.08873 0.662386 -0.028088 0.023121 0.748279 1.17398 1.17398 0.7
5 1 0.464623 -0.783143 2.42711 0.360021 0.0513678 0.0724352 0.928709 1.17398 1.17398 0.7
6 4 -0.445899 0.0900861 2.46721 0.11936 0.924524 -0.353081 -0.0796409 1.17398 1.17398 0.7
7 1 -0.0339144 0.210326 2.07794 -0.179769 0.741307 -0.637803 0.106558 1.17398 1.17398 0.7
ITEM: TIMESTEP
12000
ITEM: NUMBER OF ATOMS
10
ITEM: BOX BOUNDS pp pp pp
-2.0000000000000000e+01 2.0000000000000000e+01
-2.0000000000000000e+01 2.0000000000000000e+01
-2.0000000000000000e+01 2.0000000000000000e+01
ITEM: ATOMS id type x y z quatw quati quatj quatk shapex shapey shapez
1 1 -0.333571 -0.438724 0.644716 0.989009 0.0179763 -0.143458 0.0309444 1.17398 1.17398 0.7
2 2 -0.319445 -0.71433 1.18358 0.939738 0.0417463 -0.0234469 0.338527 1.17398 1.17398 0.7
3 3 -0.133089 -0.913744 1.62475 0.820993 0.0304191 0.0178739 0.569848 1.17398 1.17398 0.7
8 2 0.328918 0.178641 1.7253 -0.104937 0.550776 -0.825052 0.0701715 1.17398 1.17398 0.7
9 3 0.604289 0.045879 1.23416 0.0775153 -0.372259 0.910366 -0.163243 1.17398 1.17398 0.7
10 4 0.802662 -0.365673 0.989916 0.162613 0.0270914 0.984963 -0.0516866 1.17398 1.17398 0.7
4 4 0.165281 -0.980275 2.08866 0.662389 -0.0280795 0.0231376 0.748276 1.17398 1.17398 0.7
5 1 0.464708 -0.783397 2.42728 0.360006 0.0513657 0.0724374 0.928714 1.17398 1.17398 0.7
6 4 -0.445863 0.0900374 2.46724 0.119355 0.924529 -0.353072 -0.0796267 1.17398 1.17398 0.7
7 1 -0.0339329 0.210375 2.07791 -0.179801 0.741313 -0.637787 0.106555 1.17398 1.17398 0.7
ITEM: TIMESTEP
13000
ITEM: NUMBER OF ATOMS
10
ITEM: BOX BOUNDS pp pp pp
-2.0000000000000000e+01 2.0000000000000000e+01
-2.0000000000000000e+01 2.0000000000000000e+01
-2.0000000000000000e+01 2.0000000000000000e+01
ITEM: ATOMS id type x y z quatw quati quatj quatk shapex shapey shapez
1 1 -0.33325 -0.438861 0.644686 0.989008 0.0179916 -0.143464 0.0309541 1.17398 1.17398 0.7
2 2 -0.319284 -0.714372 1.18373 0.939744 0.0417509 -0.0234669 0.338508 1.17398 1.17398 0.7
3 3 -0.133314 -0.913667 1.62466 0.820988 0.0304391 0.0178981 0.569852 1.17398 1.17398 0.7
8 2 0.328855 0.178813 1.72569 -0.104941 0.550762 -0.825059 0.0701946 1.17398 1.17398 0.7
9 3 0.604116 0.0457993 1.23421 0.0774898 -0.372245 0.910372 -0.163255 1.17398 1.17398 0.7
10 4 0.802851 -0.36578 0.990042 0.162599 0.0270867 0.984965 -0.0516879 1.17398 1.17398 0.7
4 4 0.165058 -0.980228 2.08859 0.662391 -0.0280711 0.0231542 0.748274 1.17398 1.17398 0.7
5 1 0.464794 -0.783651 2.42746 0.359991 0.0513631 0.0724397 0.92872 1.17398 1.17398 0.7
6 4 -0.445827 0.0899887 2.46727 0.11935 0.924534 -0.353063 -0.0796125 1.17398 1.17398 0.7
7 1 -0.0339523 0.210424 2.07789 -0.179833 0.74132 -0.637771 0.10655 1.17398 1.17398 0.7
ITEM: TIMESTEP
14000
ITEM: NUMBER OF ATOMS
10
ITEM: BOX BOUNDS pp pp pp
-2.0000000000000000e+01 2.0000000000000000e+01
-2.0000000000000000e+01 2.0000000000000000e+01
-2.0000000000000000e+01 2.0000000000000000e+01
ITEM: ATOMS id type x y z quatw quati quatj quatk shapex shapey shapez
1 1 -0.33293 -0.438997 0.644657 0.989006 0.018007 -0.143471 0.0309638 1.17398 1.17398 0.7
2 2 -0.319123 -0.714414 1.18387 0.939751 0.0417562 -0.0234887 0.338487 1.17398 1.17398 0.7
3 3 -0.133538 -0.91359 1.62458 0.820983 0.0304583 0.0179235 0.569857 1.17398 1.17398 0.7
8 2 0.328792 0.178985 1.72608 -0.104944 0.550747 -0.825066 0.0702182 1.17398 1.17398 0.7
9 3 0.603945 0.0457196 1.23426 0.0774638 -0.37223 0.910378 -0.163268 1.17398 1.17398 0.7
10 4 0.80304 -0.365887 0.990168 0.162584 0.0270819 0.984968 -0.0516893 1.17398 1.17398 0.7
4 4 0.164835 -0.980182 2.08853 0.662394 -0.0280629 0.023171 0.748271 1.17398 1.17398 0.7
5 1 0.46488 -0.783905 2.42763 0.359976 0.0513601 0.0724421 0.928726 1.17398 1.17398 0.7
6 4 -0.445791 0.08994 2.46729 0.119346 0.92454 -0.353054 -0.0795983 1.17398 1.17398 0.7
7 1 -0.0339727 0.210472 2.07787 -0.179867 0.741328 -0.637753 0.106545 1.17398 1.17398 0.7
ITEM: TIMESTEP
15000
ITEM: NUMBER OF ATOMS
10
ITEM: BOX BOUNDS pp pp pp
-2.0000000000000000e+01 2.0000000000000000e+01
-2.0000000000000000e+01 2.0000000000000000e+01
-2.0000000000000000e+01 2.0000000000000000e+01
ITEM: ATOMS id type x y z quatw quati quatj quatk shapex shapey shapez
1 1 -0.33261 -0.439133 0.644628 0.989005 0.0180223 -0.143478 0.0309736 1.17398 1.17398 0.7
2 2 -0.318964 -0.714456 1.18402 0.939758 0.0417622 -0.0235123 0.338465 1.17398 1.17398 0.7
3 3 -0.133761 -0.913513 1.6245 0.820978 0.0304767 0.0179501 0.569863 1.17398 1.17398 0.7
8 2 0.32873 0.179157 1.72646 -0.104946 0.550731 -0.825074 0.0702422 1.17398 1.17398 0.7
9 3 0.603773 0.0456397 1.23431 0.0774371 -0.372215 0.910384 -0.16328 1.17398 1.17398 0.7
10 4 0.803229 -0.365993 0.990294 0.162569 0.0270771 0.98497 -0.0516906 1.17398 1.17398 0.7
4 4 0.164611 -0.980136 2.08846 0.662397 -0.0280547 0.0231878 0.748268 1.17398 1.17398 0.7
5 1 0.464967 -0.784158 2.42781 0.35996 0.0513568 0.0724447 0.928732 1.17398 1.17398 0.7
6 4 -0.445755 0.0898913 2.46732 0.119341 0.924545 -0.353045 -0.0795841 1.17398 1.17398 0.7
7 1 -0.033994 0.210521 2.07785 -0.179902 0.741336 -0.637735 0.106538 1.17398 1.17398 0.7
ITEM: TIMESTEP
16000
ITEM: NUMBER OF ATOMS
10
ITEM: BOX BOUNDS pp pp pp
-2.0000000000000000e+01 2.0000000000000000e+01
-2.0000000000000000e+01 2.0000000000000000e+01
-2.0000000000000000e+01 2.0000000000000000e+01
ITEM: ATOMS id type x y z quatw quati quatj quatk shapex shapey shapez
1 1 -0.332289 -0.43927 0.644598 0.989003 0.0180377 -0.143484 0.0309833 1.17398 1.17398 0.7
2 2 -0.318805 -0.714497 1.18416 0.939765 0.0417688 -0.0235378 0.338441 1.17398 1.17398 0.7
3 3 -0.133985 -0.913438 1.62441 0.820972 0.0304943 0.0179778 0.56987 1.17398 1.17398 0.7
8 2 0.328669 0.179329 1.72685 -0.104947 0.550715 -0.825083 0.0702668 1.17398 1.17398 0.7
9 3 0.603601 0.0455597 1.23436 0.07741 -0.3722 0.91039 -0.163293 1.17398 1.17398 0.7
10 4 0.803417 -0.3661 0.99042 0.162554 0.0270724 0.984973 -0.051692 1.17398 1.17398 0.7
4 4 0.164388 -0.98009 2.08839 0.6624 -0.0280466 0.0232047 0.748265 1.17398 1.17398 0.7
5 1 0.465053 -0.784412 2.42798 0.359943 0.051353 0.0724475 0.928738 1.17398 1.17398 0.7
6 4 -0.445719 0.0898426 2.46735 0.119336 0.92455 -0.353036 -0.0795699 1.17398 1.17398 0.7
7 1 -0.0340163 0.21057 2.07783 -0.179938 0.741345 -0.637715 0.10653 1.17398 1.17398 0.7
ITEM: TIMESTEP
17000
ITEM: NUMBER OF ATOMS
10
ITEM: BOX BOUNDS pp pp pp
-2.0000000000000000e+01 2.0000000000000000e+01
-2.0000000000000000e+01 2.0000000000000000e+01
-2.0000000000000000e+01 2.0000000000000000e+01
ITEM: ATOMS id type x y z quatw quati quatj quatk shapex shapey shapez
1 1 -0.331969 -0.439406 0.644569 0.989001 0.018053 -0.143491 0.030993 1.17398 1.17398 0.7
2 2 -0.318646 -0.714537 1.18431 0.939773 0.0417762 -0.023565 0.338417 1.17398 1.17398 0.7
3 3 -0.134208 -0.913362 1.62433 0.820966 0.030511 0.0180067 0.569877 1.17398 1.17398 0.7
8 2 0.328609 0.179502 1.72724 -0.104948 0.550697 -0.825093 0.0702919 1.17398 1.17398 0.7
9 3 0.60343 0.0454797 1.23442 0.0773823 -0.372185 0.910396 -0.163306 1.17398 1.17398 0.7
10 4 0.803606 -0.366207 0.990546 0.162539 0.0270676 0.984975 -0.0516933 1.17398 1.17398 0.7
4 4 0.164165 -0.980045 2.08832 0.662403 -0.0280387 0.0232217 0.748262 1.17398 1.17398 0.7
5 1 0.46514 -0.784665 2.42816 0.359926 0.0513488 0.0724504 0.928745 1.17398 1.17398 0.7
6 4 -0.445683 0.089794 2.46738 0.119331 0.924555 -0.353028 -0.0795557 1.17398 1.17398 0.7
7 1 -0.0340395 0.210619 2.07781 -0.179975 0.741355 -0.637695 0.106521 1.17398 1.17398 0.7
ITEM: TIMESTEP
18000
ITEM: NUMBER OF ATOMS
10
ITEM: BOX BOUNDS pp pp pp
-2.0000000000000000e+01 2.0000000000000000e+01
-2.0000000000000000e+01 2.0000000000000000e+01
-2.0000000000000000e+01 2.0000000000000000e+01
ITEM: ATOMS id type x y z quatw quati quatj quatk shapex shapey shapez
1 1 -0.331649 -0.439542 0.644539 0.989 0.0180683 -0.143498 0.0310028 1.17398 1.17398 0.7
2 2 -0.318488 -0.714577 1.18445 0.939781 0.0417843 -0.0235941 0.338391 1.17398 1.17398 0.7
3 3 -0.13443 -0.913288 1.62425 0.820959 0.0305269 0.0180368 0.569885 1.17398 1.17398 0.7
8 2 0.328549 0.179674 1.72762 -0.104947 0.550679 -0.825103 0.0703175 1.17398 1.17398 0.7
9 3 0.603259 0.0453995 1.23447 0.0773541 -0.372169 0.910403 -0.163319 1.17398 1.17398 0.7
10 4 0.803795 -0.366313 0.990672 0.162525 0.0270628 0.984978 -0.0516946 1.17398 1.17398 0.7
4 4 0.163941 -0.979999 2.08825 0.662406 -0.0280309 0.0232389 0.748259 1.17398 1.17398 0.7
5 1 0.465228 -0.784918 2.42833 0.359909 0.0513442 0.0724534 0.928752 1.17398 1.17398 0.7
6 4 -0.445647 0.0897453 2.46741 0.119327 0.924561 -0.353019 -0.0795415 1.17398 1.17398 0.7
7 1 -0.0340637 0.210668 2.0778 -0.180013 0.741366 -0.637673 0.10651 1.17398 1.17398 0.7
ITEM: TIMESTEP
19000
ITEM: NUMBER OF ATOMS
10
ITEM: BOX BOUNDS pp pp pp
-2.0000000000000000e+01 2.0000000000000000e+01
-2.0000000000000000e+01 2.0000000000000000e+01
-2.0000000000000000e+01 2.0000000000000000e+01
ITEM: ATOMS id type x y z quatw quati quatj quatk shapex shapey shapez
1 1 -0.331328 -0.439679 0.64451 0.988998 0.0180837 -0.143504 0.0310125 1.17398 1.17398 0.7
2 2 -0.318331 -0.714616 1.1846 0.93979 0.0417931 -0.023625 0.338364 1.17398 1.17398 0.7
3 3 -0.134652 -0.913214 1.62417 0.820952 0.030542 0.0180681 0.569894 1.17398 1.17398 0.7
8 2 0.32849 0.179846 1.72801 -0.104946 0.55066 -0.825113 0.0703437 1.17398 1.17398 0.7
9 3 0.603088 0.0453193 1.23452 0.0773254 -0.372154 0.910409 -0.163332 1.17398 1.17398 0.7
10 4 0.803983 -0.36642 0.990799 0.16251 0.0270581 0.98498 -0.051696 1.17398 1.17398 0.7
4 4 0.163718 -0.979954 2.08818 0.66241 -0.0280231 0.0232561 0.748256 1.17398 1.17398 0.7
5 1 0.465315 -0.785171 2.42851 0.359891 0.0513392 0.0724566 0.928759 1.17398 1.17398 0.7
6 4 -0.445611 0.0896966 2.46744 0.119322 0.924566 -0.35301 -0.0795273 1.17398 1.17398 0.7
7 1 -0.0340888 0.210717 2.07778 -0.180052 0.741378 -0.637651 0.106498 1.17398 1.17398 0.7
ITEM: TIMESTEP
20000
ITEM: NUMBER OF ATOMS
10
ITEM: BOX BOUNDS pp pp pp
-2.0000000000000000e+01 2.0000000000000000e+01
-2.0000000000000000e+01 2.0000000000000000e+01
-2.0000000000000000e+01 2.0000000000000000e+01
ITEM: ATOMS id type x y z quatw quati quatj quatk shapex shapey shapez
1 1 -0.331008 -0.439815 0.644481 0.988997 0.018099 -0.143511 0.0310222 1.17398 1.17398 0.7
2 2 -0.318175 -0.714654 1.18474 0.939799 0.0418027 -0.0236578 0.338336 1.17398 1.17398 0.7
3 3 -0.134874 -0.91314 1.62409 0.820944 0.0305562 0.0181007 0.569903 1.17398 1.17398 0.7
8 2 0.328432 0.180019 1.72839 -0.104944 0.55064 -0.825124 0.0703704 1.17398 1.17398 0.7
9 3 0.602917 0.045239 1.23457 0.0772962 -0.372138 0.910416 -0.163346 1.17398 1.17398 0.7
10 4 0.804172 -0.366527 0.990925 0.162495 0.0270533 0.984983 -0.0516973 1.17398 1.17398 0.7
4 4 0.163494 -0.979909 2.08812 0.662413 -0.0280156 0.0232734 0.748253 1.17398 1.17398 0.7
5 1 0.465403 -0.785424 2.42868 0.359873 0.0513338 0.0724599 0.928766 1.17398 1.17398 0.7
6 4 -0.445575 0.0896479 2.46747 0.119317 0.924571 -0.353001 -0.0795131 1.17398 1.17398 0.7
7 1 -0.0341149 0.210766 2.07776 -0.180092 0.74139 -0.637627 0.106486 1.17398 1.17398 0.7
ITEM: TIMESTEP
21000
ITEM: NUMBER OF ATOMS
10
ITEM: BOX BOUNDS pp pp pp
-2.0000000000000000e+01 2.0000000000000000e+01
-2.0000000000000000e+01 2.0000000000000000e+01
-2.0000000000000000e+01 2.0000000000000000e+01
ITEM: ATOMS id type x y z quatw quati quatj quatk shapex shapey shapez
1 1 -0.330688 -0.439951 0.644451 0.988995 0.0181143 -0.143518 0.0310319 1.17398 1.17398 0.7
2 2 -0.318019 -0.714692 1.18488 0.939808 0.0418129 -0.0236925 0.338306 1.17398 1.17398 0.7
3 3 -0.135095 -0.913067 1.62401 0.820936 0.0305695 0.0181345 0.569914 1.17398 1.17398 0.7
8 2 0.328375 0.180191 1.72878 -0.10494 0.550619 -0.825136 0.0703977 1.17398 1.17398 0.7
9 3 0.602747 0.0451585 1.23462 0.0772665 -0.372122 0.910422 -0.16336 1.17398 1.17398 0.7
10 4 0.804361 -0.366633 0.991051 0.16248 0.0270485 0.984985 -0.0516987 1.17398 1.17398 0.7
4 4 0.163271 -0.979864 2.08805 0.662416 -0.0280081 0.0232908 0.74825 1.17398 1.17398 0.7
5 1 0.465491 -0.785676 2.42886 0.359855 0.0513281 0.0724634 0.928773 1.17398 1.17398 0.7
6 4 -0.445539 0.0895992 2.46749 0.119312 0.924576 -0.352992 -0.0794989 1.17398 1.17398 0.7
7 1 -0.034142 0.210816 2.07775 -0.180133 0.741403 -0.637603 0.106471 1.17398 1.17398 0.7
ITEM: TIMESTEP
22000
ITEM: NUMBER OF ATOMS
10
ITEM: BOX BOUNDS pp pp pp
-2.0000000000000000e+01 2.0000000000000000e+01
-2.0000000000000000e+01 2.0000000000000000e+01
-2.0000000000000000e+01 2.0000000000000000e+01
ITEM: ATOMS id type x y z quatw quati quatj quatk shapex shapey shapez
1 1 -0.330367 -0.440088 0.644422 0.988994 0.0181297 -0.143525 0.0310417 1.17398 1.17398 0.7
2 2 -0.317864 -0.714729 1.18502 0.939818 0.0418239 -0.0237291 0.338275 1.17398 1.17398 0.7
3 3 -0.135316 -0.912995 1.62393 0.820927 0.0305819 0.0181695 0.569925 1.17398 1.17398 0.7
8 2 0.328319 0.180363 1.72916 -0.104936 0.550598 -0.825149 0.0704256 1.17398 1.17398 0.7
9 3 0.602576 0.045078 1.23467 0.0772364 -0.372105 0.910429 -0.163374 1.17398 1.17398 0.7
10 4 0.804549 -0.36674 0.991177 0.162465 0.0270438 0.984988 -0.0517 1.17398 1.17398 0.7
4 4 0.163047 -0.97982 2.08798 0.66242 -0.0280008 0.0233083 0.748246 1.17398 1.17398 0.7
5 1 0.46558 -0.785929 2.42904 0.359836 0.051322 0.0724669 0.92878 1.17398 1.17398 0.7
6 4 -0.445503 0.0895505 2.46752 0.119308 0.924582 -0.352983 -0.0794847 1.17398 1.17398 0.7
7 1 -0.03417 0.210865 2.07773 -0.180176 0.741417 -0.637577 0.106456 1.17398 1.17398 0.7
ITEM: TIMESTEP
23000
ITEM: NUMBER OF ATOMS
10
ITEM: BOX BOUNDS pp pp pp
-2.0000000000000000e+01 2.0000000000000000e+01
-2.0000000000000000e+01 2.0000000000000000e+01
-2.0000000000000000e+01 2.0000000000000000e+01
ITEM: ATOMS id type x y z quatw quati quatj quatk shapex shapey shapez
1 1 -0.330047 -0.440224 0.644392 0.988992 0.018145 -0.143531 0.0310514 1.17398 1.17398 0.7
2 2 -0.31771 -0.714765 1.18516 0.939828 0.0418356 -0.0237676 0.338243 1.17398 1.17398 0.7
3 3 -0.135536 -0.912923 1.62385 0.820917 0.0305935 0.0182059 0.569936 1.17398 1.17398 0.7
8 2 0.328263 0.180535 1.72955 -0.104931 0.550575 -0.825162 0.070454 1.17398 1.17398 0.7
9 3 0.602406 0.0449974 1.23472 0.0772058 -0.372089 0.910436 -0.163388 1.17398 1.17398 0.7
10 4 0.804738 -0.366847 0.991303 0.162451 0.027039 0.98499 -0.0517014 1.17398 1.17398 0.7
4 4 0.162823 -0.979776 2.08791 0.662423 -0.0279936 0.023326 0.748243 1.17398 1.17398 0.7
5 1 0.465669 -0.786181 2.42921 0.359817 0.0513155 0.0724707 0.928788 1.17398 1.17398 0.7
6 4 -0.445467 0.0895018 2.46755 0.119303 0.924587 -0.352974 -0.0794705 1.17398 1.17398 0.7
7 1 -0.034199 0.210915 2.07771 -0.180219 0.741432 -0.637551 0.106439 1.17398 1.17398 0.7
ITEM: TIMESTEP
24000
ITEM: NUMBER OF ATOMS
10
ITEM: BOX BOUNDS pp pp pp
-2.0000000000000000e+01 2.0000000000000000e+01
-2.0000000000000000e+01 2.0000000000000000e+01
-2.0000000000000000e+01 2.0000000000000000e+01
ITEM: ATOMS id type x y z quatw quati quatj quatk shapex shapey shapez
1 1 -0.329727 -0.44036 0.644363 0.988991 0.0181603 -0.143538 0.0310611 1.17398 1.17398 0.7
2 2 -0.317557 -0.714801 1.1853 0.939838 0.0418481 -0.0238081 0.33821 1.17398 1.17398 0.7
3 3 -0.135755 -0.912852 1.62377 0.820907 0.0306042 0.0182435 0.569949 1.17398 1.17398 0.7
8 2 0.328209 0.180707 1.72993 -0.104925 0.550552 -0.825176 0.070483 1.17398 1.17398 0.7
9 3 0.602235 0.0449168 1.23477 0.0771748 -0.372072 0.910443 -0.163402 1.17398 1.17398 0.7
10 4 0.804927 -0.366953 0.991429 0.162436 0.0270342 0.984993 -0.0517027 1.17398 1.17398 0.7
4 4 0.1626 -0.979731 2.08784 0.662427 -0.0279865 0.0233438 0.748239 1.17398 1.17398 0.7
5 1 0.465758 -0.786433 2.42939 0.359797 0.0513087 0.0724745 0.928795 1.17398 1.17398 0.7
6 4 -0.445431 0.0894532 2.46758 0.119298 0.924592 -0.352965 -0.0794563 1.17398 1.17398 0.7
7 1 -0.0342291 0.210964 2.0777 -0.180264 0.741447 -0.637523 0.106421 1.17398 1.17398 0.7
ITEM: TIMESTEP
25000
ITEM: NUMBER OF ATOMS
10
ITEM: BOX BOUNDS pp pp pp
-2.0000000000000000e+01 2.0000000000000000e+01
-2.0000000000000000e+01 2.0000000000000000e+01
-2.0000000000000000e+01 2.0000000000000000e+01
ITEM: ATOMS id type x y z quatw quati quatj quatk shapex shapey shapez
1 1 -0.329406 -0.440497 0.644334 0.988989 0.0181757 -0.143545 0.0310708 1.17398 1.17398 0.7
2 2 -0.317404 -0.714836 1.18543 0.939849 0.0418614 -0.0238505 0.338175 1.17398 1.17398 0.7