ITEM: TIMESTEP
0
ITEM: NUMBER OF ATOMS
10
ITEM: BOX BOUNDS pp pp pp
-2.0000000000000000e+01 2.0000000000000000e+01
-2.0000000000000000e+01 2.0000000000000000e+01
-2.0000000000000000e+01 2.0000000000000000e+01
ITEM: ATOMS id type x y z quatw quati quatj quatk shapex shapey shapez
1 1 -0.337415 -0.437088 0.645069 0.989028 0.0177923 -0.143377 0.0308276 1.17398 1.17398 0.7
2 2 -0.321426 -0.713774 1.18174 0.939687 0.0417417 -0.0233378 0.338675 1.17398 1.17398 0.7
3 3 -0.130364 -0.914714 1.62581 0.821011 0.0301214 0.017666 0.569843 1.17398 1.17398 0.7
8 2 0.329733 0.176576 1.72063 -0.104837 0.55089 -0.825009 0.0699281 1.17398 1.17398 0.7
9 3 0.60637 0.046826 1.2335 0.0777724 -0.372409 0.910305 -0.163118 1.17398 1.17398 0.7
10 4 0.800398 -0.364393 0.988403 0.162791 0.0271486 0.984933 -0.0516705 1.17398 1.17398 0.7
4 4 0.167951 -0.980851 2.08949 0.662366 -0.0281863 0.0229426 0.748298 1.17398 1.17398 0.7
5 1 0.463704 -0.780335 2.4252 0.360149 0.0513615 0.0724224 0.92866 1.17398 1.17398 0.7
6 4 -0.446295 0.0906216 2.46689 0.119412 0.924466 -0.353179 -0.0797971 1.17398 1.17398 0.7
7 1 -0.0337705 0.209798 2.07821 -0.179491 0.741288 -0.637909 0.106517 1.17398 1.17398 0.7
ITEM: TIMESTEP
1000
ITEM: NUMBER OF ATOMS
10
ITEM: BOX BOUNDS pp pp pp
-2.0000000000000000e+01 2.0000000000000000e+01
-2.0000000000000000e+01 2.0000000000000000e+01
-2.0000000000000000e+01 2.0000000000000000e+01
ITEM: ATOMS id type x y z quatw quati quatj quatk shapex shapey shapez
1 1 -0.337094 -0.437225 0.645039 0.989027 0.0177973 -0.143381 0.0308332 1.17398 1.17398 0.7
2 2 -0.321258 -0.713824 1.18189 0.939689 0.0417407 -0.0233382 0.338671 1.17398 1.17398 0.7
3 3 -0.130593 -0.914631 1.62572 0.821012 0.0301207 0.0176817 0.569842 1.17398 1.17398 0.7
8 2 0.329661 0.176748 1.72102 -0.104843 0.550892 -0.825007 0.0699202 1.17398 1.17398 0.7
9 3 0.606195 0.0467477 1.23356 0.0777635 -0.372415 0.910304 -0.163115 1.17398 1.17398 0.7
10 4 0.800587 -0.3645 0.988529 0.162784 0.0271509 0.984934 -0.0516684 1.17398 1.17398 0.7
4 4 0.167729 -0.980801 2.08942 0.662367 -0.0281949 0.0229462 0.748297 1.17398 1.17398 0.7
5 1 0.463786 -0.780591 2.42537 0.360144 0.0513607 0.0724236 0.928662 1.17398 1.17398 0.7
6 4 -0.446259 0.0905729 2.46692 0.11941 0.924464 -0.353185 -0.0798018 1.17398 1.17398 0.7
7 1 -0.0337792 0.209846 2.07818 -0.179501 0.741287 -0.637909 0.106511 1.17398 1.17398 0.7
ITEM: TIMESTEP
2000
ITEM: NUMBER OF ATOMS
10
ITEM: BOX BOUNDS pp pp pp
-2.0000000000000000e+01 2.0000000000000000e+01
-2.0000000000000000e+01 2.0000000000000000e+01
-2.0000000000000000e+01 2.0000000000000000e+01
ITEM: ATOMS id type x y z quatw quati quatj quatk shapex shapey shapez
1 1 -0.336774 -0.437361 0.64501 0.989026 0.0178023 -0.143384 0.0308387 1.17398 1.17398 0.7
2 2 -0.32109 -0.713872 1.18205 0.93969 0.0417404 -0.023339 0.338668 1.17398 1.17398 0.7
3 3 -0.130821 -0.914548 1.62563 0.821012 0.0301195 0.0176977 0.569841 1.17398 1.17398 0.7
8 2 0.32959 0.17692 1.72141 -0.104848 0.550895 -0.825005 0.0699123 1.17398 1.17398 0.7
9 3 0.606021 0.0466694 1.23362 0.0777544 -0.372421 0.910303 -0.163113 1.17398 1.17398 0.7
10 4 0.800775 -0.364606 0.988655 0.162776 0.0271532 0.984935 -0.0516663 1.17398 1.17398 0.7
4 4 0.167507 -0.980752 2.08935 0.662367 -0.0282035 0.0229498 0.748296 1.17398 1.17398 0.7
5 1 0.463868 -0.780847 2.42554 0.36014 0.0513599 0.0724246 0.928664 1.17398 1.17398 0.7
6 4 -0.446223 0.0905243 2.46695 0.119408 0.924462 -0.35319 -0.0798064 1.17398 1.17398 0.7
7 1 -0.0337887 0.209894 2.07815 -0.179512 0.741285 -0.637909 0.106506 1.17398 1.17398 0.7
ITEM: TIMESTEP
3000
ITEM: NUMBER OF ATOMS
10
ITEM: BOX BOUNDS pp pp pp
-2.0000000000000000e+01 2.0000000000000000e+01
-2.0000000000000000e+01 2.0000000000000000e+01
-2.0000000000000000e+01 2.0000000000000000e+01
ITEM: ATOMS id type x y z quatw quati quatj quatk shapex shapey shapez
1 1 -0.336454 -0.437497 0.64498 0.989026 0.0178073 -0.143387 0.0308442 1.17398 1.17398 0.7
2 2 -0.320923 -0.71392 1.18221 0.939691 0.0417409 -0.0233401 0.338663 1.17398 1.17398 0.7
3 3 -0.13105 -0.914465 1.62554 0.821012 0.0301178 0.0177138 0.56984 1.17398 1.17398 0.7
8 2 0.32952 0.177092 1.7218 -0.104854 0.550899 -0.825003 0.0699044 1.17398 1.17398 0.7
9 3 0.605846 0.0465909 1.23367 0.0777449 -0.372427 0.910301 -0.163109 1.17398 1.17398 0.7
10 4 0.800964 -0.364713 0.988781 0.162769 0.0271555 0.984936 -0.0516642 1.17398 1.17398 0.7
4 4 0.167285 -0.980703 2.08928 0.662368 -0.0282121 0.0229535 0.748296 1.17398 1.17398 0.7
5 1 0.463951 -0.781103 2.42572 0.360135 0.051359 0.0724253 0.928666 1.17398 1.17398 0.7
6 4 -0.446187 0.0904756 2.46698 0.119405 0.92446 -0.353195 -0.0798111 1.17398 1.17398 0.7
7 1 -0.0337991 0.209941 2.07813 -0.179523 0.741283 -0.637909 0.1065 1.17398 1.17398 0.7
ITEM: TIMESTEP
4000
ITEM: NUMBER OF ATOMS
10
ITEM: BOX BOUNDS pp pp pp
-2.0000000000000000e+01 2.0000000000000000e+01
-2.0000000000000000e+01 2.0000000000000000e+01
-2.0000000000000000e+01 2.0000000000000000e+01
ITEM: ATOMS id type x y z quatw quati quatj quatk shapex shapey shapez
1 1 -0.336133 -0.437634 0.644951 0.989025 0.0178124 -0.143391 0.0308497 1.17398 1.17398 0.7
2 2 -0.320756 -0.713968 1.18236 0.939693 0.0417421 -0.0233415 0.338659 1.17398 1.17398 0.7
3 3 -0.131278 -0.914383 1.62545 0.821012 0.0301156 0.0177301 0.56984 1.17398 1.17398 0.7
8 2 0.32945 0.177264 1.72219 -0.104859 0.550903 -0.825 0.0698964 1.17398 1.17398 0.7
9 3 0.605672 0.0465122 1.23373 0.0777351 -0.372434 0.9103 -0.163106 1.17398 1.17398 0.7
10 4 0.801153 -0.36482 0.988907 0.162761 0.0271577 0.984938 -0.0516621 1.17398 1.17398 0.7
4 4 0.167063 -0.980655 2.08921 0.662368 -0.0282209 0.0229572 0.748295 1.17398 1.17398 0.7
5 1 0.464033 -0.781359 2.42589 0.360129 0.0513581 0.0724258 0.928668 1.17398 1.17398 0.7
6 4 -0.446151 0.0904269 2.46701 0.119403 0.924458 -0.3532 -0.0798157 1.17398 1.17398 0.7
7 1 -0.0338104 0.209989 2.0781 -0.179536 0.74128 -0.63791 0.106494 1.17398 1.17398 0.7
ITEM: TIMESTEP
5000
ITEM: NUMBER OF ATOMS
10
ITEM: BOX BOUNDS pp pp pp
-2.0000000000000000e+01 2.0000000000000000e+01
-2.0000000000000000e+01 2.0000000000000000e+01
-2.0000000000000000e+01 2.0000000000000000e+01
ITEM: ATOMS id type x y z quatw quati quatj quatk shapex shapey shapez
1 1 -0.335813 -0.43777 0.644922 0.989024 0.0178174 -0.143394 0.0308552 1.17398 1.17398 0.7
2 2 -0.32059 -0.714015 1.18252 0.939695 0.0417441 -0.0233433 0.338653 1.17398 1.17398 0.7
3 3 -0.131506 -0.914301 1.62536 0.821012 0.0301128 0.0177467 0.56984 1.17398 1.17398 0.7
8 2 0.329381 0.177436 1.72258 -0.104863 0.550907 -0.824998 0.0698885 1.17398 1.17398 0.7
9 3 0.605499 0.0464335 1.23378 0.0777251 -0.372441 0.910299 -0.163103 1.17398 1.17398 0.7
10 4 0.801341 -0.364926 0.989033 0.162754 0.02716 0.984939 -0.05166 1.17398 1.17398 0.7
4 4 0.16684 -0.980606 2.08914 0.662369 -0.0282298 0.0229609 0.748293 1.17398 1.17398 0.7
5 1 0.464117 -0.781614 2.42606 0.360124 0.0513571 0.0724261 0.92867 1.17398 1.17398 0.7
6 4 -0.446115 0.0903782 2.46704 0.119401 0.924455 -0.353206 -0.0798204 1.17398 1.17398 0.7
7 1 -0.0338225 0.210037 2.07808 -0.179548 0.741277 -0.637911 0.106488 1.17398 1.17398 0.7
ITEM: TIMESTEP
6000
ITEM: NUMBER OF ATOMS
10
ITEM: BOX BOUNDS pp pp pp
-2.0000000000000000e+01 2.0000000000000000e+01
-2.0000000000000000e+01 2.0000000000000000e+01
-2.0000000000000000e+01 2.0000000000000000e+01
ITEM: ATOMS id type x y z quatw quati quatj quatk shapex shapey shapez
1 1 -0.335493 -0.437906 0.644892 0.989023 0.0178224 -0.143397 0.0308607 1.17398 1.17398 0.7
2 2 -0.320424 -0.714062 1.18267 0.939697 0.0417469 -0.0233453 0.338647 1.17398 1.17398 0.7
3 3 -0.131733 -0.91422 1.62527 0.821011 0.0301094 0.0177634 0.569841 1.17398 1.17398 0.7
8 2 0.329313 0.177608 1.72297 -0.104868 0.550911 -0.824995 0.0698805 1.17398 1.17398 0.7
9 3 0.605325 0.0463546 1.23384 0.0777147 -0.372448 0.910298 -0.163099 1.17398 1.17398 0.7
10 4 0.80153 -0.365033 0.989159 0.162747 0.0271623 0.98494 -0.0516579 1.17398 1.17398 0.7
4 4 0.166618 -0.980558 2.08908 0.66237 -0.0282388 0.0229647 0.748292 1.17398 1.17398 0.7
5 1 0.4642 -0.78187 2.42624 0.360118 0.0513561 0.0724262 0.928672 1.17398 1.17398 0.7
6 4 -0.446079 0.0903295 2.46707 0.119398 0.924453 -0.353211 -0.079825 1.17398 1.17398 0.7
7 1 -0.0338356 0.210085 2.07805 -0.179562 0.741274 -0.637913 0.106482 1.17398 1.17398 0.7
ITEM: TIMESTEP
7000
ITEM: NUMBER OF ATOMS
10
ITEM: BOX BOUNDS pp pp pp
-2.0000000000000000e+01 2.0000000000000000e+01
-2.0000000000000000e+01 2.0000000000000000e+01
-2.0000000000000000e+01 2.0000000000000000e+01
ITEM: ATOMS id type x y z quatw quati quatj quatk shapex shapey shapez
1 1 -0.335172 -0.438043 0.644863 0.989023 0.0178274 -0.1434 0.0308662 1.17398 1.17398 0.7
2 2 -0.32026 -0.714108 1.18282 0.939699 0.0417505 -0.0233477 0.338641 1.17398 1.17398 0.7
3 3 -0.13196 -0.91414 1.62518 0.82101 0.0301055 0.0177804 0.569842 1.17398 1.17398 0.7
8 2 0.329246 0.17778 1.72336 -0.104872 0.550916 -0.824992 0.0698725 1.17398 1.17398 0.7
9 3 0.605152 0.0462756 1.23389 0.0777041 -0.372455 0.910296 -0.163095 1.17398 1.17398 0.7
10 4 0.801719 -0.36514 0.989285 0.162739 0.0271646 0.984941 -0.0516558 1.17398 1.17398 0.7
4 4 0.166395 -0.98051 2.08901 0.662371 -0.0282478 0.0229684 0.748291 1.17398 1.17398 0.7
5 1 0.464284 -0.782125 2.42641 0.360112 0.0513551 0.072426 0.928675 1.17398 1.17398 0.7
6 4 -0.446043 0.0902808 2.46709 0.119396 0.924451 -0.353216 -0.0798297 1.17398 1.17398 0.7
7 1 -0.0338495 0.210133 2.07803 -0.179576 0.741269 -0.637915 0.106476 1.17398 1.17398 0.7
ITEM: TIMESTEP
8000
ITEM: NUMBER OF ATOMS
10
ITEM: BOX BOUNDS pp pp pp
-2.0000000000000000e+01 2.0000000000000000e+01
-2.0000000000000000e+01 2.0000000000000000e+01
-2.0000000000000000e+01 2.0000000000000000e+01
ITEM: ATOMS id type x y z quatw quati quatj quatk shapex shapey shapez
1 1 -0.334852 -0.438179 0.644833 0.989022 0.0178324 -0.143404 0.0308717 1.17398 1.17398 0.7
2 2 -0.320095 -0.714153 1.18298 0.939701 0.0417549 -0.0233505 0.338634 1.17398 1.17398 0.7
3 3 -0.132186 -0.914059 1.62509 0.821009 0.030101 0.0177975 0.569843 1.17398 1.17398 0.7
8 2 0.329179 0.177952 1.72375 -0.104875 0.550921 -0.824988 0.0698644 1.17398 1.17398 0.7
9 3 0.604979 0.0461965 1.23394 0.0776932 -0.372463 0.910295 -0.163091 1.17398 1.17398 0.7
10 4 0.801908 -0.365246 0.989411 0.162732 0.0271669 0.984943 -0.0516537 1.17398 1.17398 0.7
4 4 0.166173 -0.980463 2.08894 0.662372 -0.0282569 0.0229722 0.74829 1.17398 1.17398 0.7
5 1 0.464368 -0.78238 2.42658 0.360106 0.051354 0.0724256 0.928677 1.17398 1.17398 0.7
6 4 -0.446007 0.0902321 2.46712 0.119394 0.924449 -0.353221 -0.0798343 1.17398 1.17398 0.7
7 1 -0.0338644 0.210181 2.078 -0.179591 0.741265 -0.637917 0.10647 1.17398 1.17398 0.7
ITEM: TIMESTEP
9000
ITEM: NUMBER OF ATOMS
10
ITEM: BOX BOUNDS pp pp pp
-2.0000000000000000e+01 2.0000000000000000e+01
-2.0000000000000000e+01 2.0000000000000000e+01
-2.0000000000000000e+01 2.0000000000000000e+01
ITEM: ATOMS id type x y z quatw quati quatj quatk shapex shapey shapez
1 1 -0.334532 -0.438315 0.644804 0.989021 0.0178374 -0.143407 0.0308772 1.17398 1.17398 0.7
2 2 -0.319932 -0.714198 1.18313 0.939704 0.04176 -0.0233535 0.338626 1.17398 1.17398 0.7
3 3 -0.132413 -0.91398 1.62501 0.821008 0.0300959 0.0178149 0.569845 1.17398 1.17398 0.7
8 2 0.329112 0.178124 1.72414 -0.104878 0.550927 -0.824985 0.0698563 1.17398 1.17398 0.7
9 3 0.604806 0.0461173 1.234 0.077682 -0.37247 0.910293 -0.163087 1.17398 1.17398 0.7
10 4 0.802096 -0.365353 0.989537 0.162724 0.0271691 0.984944 -0.0516516 1.17398 1.17398 0.7
4 4 0.16595 -0.980415 2.08887 0.662373 -0.0282662 0.0229761 0.748289 1.17398 1.17398 0.7
5 1 0.464453 -0.782634 2.42676 0.360099 0.0513529 0.072425 0.92868 1.17398 1.17398 0.7
6 4 -0.445971 0.0901835 2.46715 0.119392 0.924447 -0.353227 -0.079839 1.17398 1.17398 0.7
7 1 -0.0338802 0.21023 2.07798 -0.179607 0.741259 -0.63792 0.106463 1.17398 1.17398 0.7
ITEM: TIMESTEP
10000
ITEM: NUMBER OF ATOMS
10
ITEM: BOX BOUNDS pp pp pp
-2.0000000000000000e+01 2.0000000000000000e+01
-2.0000000000000000e+01 2.0000000000000000e+01
-2.0000000000000000e+01 2.0000000000000000e+01
ITEM: ATOMS id type x y z quatw quati quatj quatk shapex shapey shapez
1 1 -0.334211 -0.438452 0.644775 0.98902 0.0178425 -0.14341 0.0308827 1.17398 1.17398 0.7
2 2 -0.319769 -0.714243 1.18328 0.939706 0.041766 -0.0233569 0.338618 1.17398 1.17398 0.7
3 3 -0.132639 -0.913901 1.62492 0.821006 0.0300903 0.0178325 0.569847 1.17398 1.17398 0.7
8 2 0.329047 0.178296 1.72453 -0.104881 0.550933 -0.824981 0.0698482 1.17398 1.17398 0.7
9 3 0.604633 0.046038 1.23405 0.0776706 -0.372478 0.910292 -0.163083 1.17398 1.17398 0.7
10 4 0.802285 -0.36546 0.989664 0.162717 0.0271714 0.984945 -0.0516495 1.17398 1.17398 0.7
4 4 0.165727 -0.980368 2.0888 0.662374 -0.0282755 0.0229799 0.748287 1.17398 1.17398 0.7
5 1 0.464538 -0.782889 2.42693 0.360093 0.0513517 0.0724242 0.928682 1.17398 1.17398 0.7
6 4 -0.445935 0.0901348 2.46718 0.119389 0.924445 -0.353232 -0.0798436 1.17398 1.17398 0.7
7 1 -0.0338968 0.210278 2.07796 -0.179623 0.741254 -0.637923 0.106457 1.17398 1.17398 0.7
ITEM: TIMESTEP
11000
ITEM: NUMBER OF ATOMS
10
ITEM: BOX BOUNDS pp pp pp
-2.0000000000000000e+01 2.0000000000000000e+01
-2.0000000000000000e+01 2.0000000000000000e+01
-2.0000000000000000e+01 2.0000000000000000e+01
ITEM: ATOMS id type x y z quatw quati quatj quatk shapex shapey shapez
1 1 -0.333891 -0.438588 0.644745 0.98902 0.0178475 -0.143414 0.0308882 1.17398 1.17398 0.7
2 2 -0.319606 -0.714287 1.18343 0.939709 0.0417728 -0.0233607 0.338609 1.17398 1.17398 0.7
3 3 -0.132864 -0.913822 1.62483 0.821005 0.030084 0.0178503 0.569849 1.17398 1.17398 0.7
8 2 0.328982 0.178468 1.72492 -0.104884 0.55094 -0.824977 0.0698401 1.17398 1.17398 0.7
9 3 0.604461 0.0459585 1.2341 0.0776589 -0.372486 0.910291 -0.163079 1.17398 1.17398 0.7
10 4 0.802474 -0.365566 0.98979 0.162709 0.0271737 0.984947 -0.0516474 1.17398 1.17398 0.7
4 4 0.165504 -0.980321 2.08873 0.662375 -0.028285 0.0229838 0.748286 1.17398 1.17398 0.7
5 1 0.464623 -0.783143 2.42711 0.360086 0.0513505 0.0724232 0.928685 1.17398 1.17398 0.7
6 4 -0.445899 0.0900861 2.46721 0.119387 0.924443 -0.353237 -0.0798482 1.17398 1.17398 0.7
7 1 -0.0339144 0.210326 2.07794 -0.17964 0.741247 -0.637926 0.10645 1.17398 1.17398 0.7
ITEM: TIMESTEP
12000
ITEM: NUMBER OF ATOMS
10
ITEM: BOX BOUNDS pp pp pp
-2.0000000000000000e+01 2.0000000000000000e+01
-2.0000000000000000e+01 2.0000000000000000e+01
-2.0000000000000000e+01 2.0000000000000000e+01
ITEM: ATOMS id type x y z quatw quati quatj quatk shapex shapey shapez
1 1 -0.333571 -0.438724 0.644716 0.989019 0.0178525 -0.143417 0.0308937 1.17398 1.17398 0.7
2 2 -0.319445 -0.71433 1.18358 0.939712 0.0417805 -0.0233648 0.3386 1.17398 1.17398 0.7
3 3 -0.133089 -0.913744 1.62475 0.821003 0.0300771 0.0178684 0.569852 1.17398 1.17398 0.7
8 2 0.328918 0.178641 1.7253 -0.104886 0.550947 -0.824973 0.0698319 1.17398 1.17398 0.7
9 3 0.604289 0.045879 1.23416 0.0776469 -0.372494 0.910289 -0.163074 1.17398 1.17398 0.7
10 4 0.802662 -0.365673 0.989916 0.162702 0.027176 0.984948 -0.0516453 1.17398 1.17398 0.7
4 4 0.165281 -0.980275 2.08866 0.662376 -0.0282945 0.0229877 0.748284 1.17398 1.17398 0.7
5 1 0.464708 -0.783397 2.42728 0.360078 0.0513493 0.072422 0.928688 1.17398 1.17398 0.7
6 4 -0.445863 0.0900374 2.46724 0.119385 0.924441 -0.353242 -0.0798529 1.17398 1.17398 0.7
7 1 -0.033933 0.210375 2.07791 -0.179658 0.741241 -0.63793 0.106444 1.17398 1.17398 0.7
ITEM: TIMESTEP
13000
ITEM: NUMBER OF ATOMS
10
ITEM: BOX BOUNDS pp pp pp
-2.0000000000000000e+01 2.0000000000000000e+01
-2.0000000000000000e+01 2.0000000000000000e+01
-2.0000000000000000e+01 2.0000000000000000e+01
ITEM: ATOMS id type x y z quatw quati quatj quatk shapex shapey shapez
1 1 -0.33325 -0.438861 0.644686 0.989018 0.0178575 -0.14342 0.0308992 1.17398 1.17398 0.7
2 2 -0.319284 -0.714372 1.18373 0.939715 0.0417889 -0.0233692 0.33859 1.17398 1.17398 0.7
3 3 -0.133314 -0.913667 1.62466 0.821 0.0300696 0.0178866 0.569855 1.17398 1.17398 0.7
8 2 0.328855 0.178813 1.72569 -0.104888 0.550954 -0.824968 0.0698237 1.17398 1.17398 0.7
9 3 0.604116 0.0457993 1.23421 0.0776348 -0.372502 0.910288 -0.163069 1.17398 1.17398 0.7
10 4 0.802851 -0.36578 0.990042 0.162695 0.0271783 0.984949 -0.0516432 1.17398 1.17398 0.7
4 4 0.165058 -0.980228 2.08859 0.662377 -0.0283041 0.0229916 0.748283 1.17398 1.17398 0.7
5 1 0.464794 -0.783651 2.42746 0.360071 0.051348 0.0724205 0.928691 1.17398 1.17398 0.7
6 4 -0.445827 0.0899887 2.46727 0.119382 0.924439 -0.353247 -0.0798575 1.17398 1.17398 0.7
7 1 -0.0339525 0.210424 2.07789 -0.179676 0.741233 -0.637935 0.106437 1.17398 1.17398 0.7
ITEM: TIMESTEP
14000
ITEM: NUMBER OF ATOMS
10
ITEM: BOX BOUNDS pp pp pp
-2.0000000000000000e+01 2.0000000000000000e+01
-2.0000000000000000e+01 2.0000000000000000e+01
-2.0000000000000000e+01 2.0000000000000000e+01
ITEM: ATOMS id type x y z quatw quati quatj quatk shapex shapey shapez
1 1 -0.33293 -0.438997 0.644657 0.989017 0.0178625 -0.143424 0.0309048 1.17398 1.17398 0.7
2 2 -0.319123 -0.714414 1.18387 0.939718 0.0417982 -0.023374 0.338579 1.17398 1.17398 0.7
3 3 -0.133538 -0.91359 1.62458 0.820998 0.0300615 0.0179051 0.569858 1.17398 1.17398 0.7
8 2 0.328792 0.178985 1.72608 -0.104889 0.550962 -0.824964 0.0698154 1.17398 1.17398 0.7
9 3 0.603945 0.0457195 1.23426 0.0776223 -0.37251 0.910286 -0.163064 1.17398 1.17398 0.7
10 4 0.80304 -0.365887 0.990168 0.162687 0.0271805 0.98495 -0.0516411 1.17398 1.17398 0.7
4 4 0.164835 -0.980182 2.08853 0.662378 -0.0283139 0.0229956 0.748281 1.17398 1.17398 0.7
5 1 0.46488 -0.783905 2.42763 0.360064 0.0513467 0.0724189 0.928694 1.17398 1.17398 0.7
6 4 -0.445791 0.08994 2.46729 0.11938 0.924437 -0.353253 -0.0798622 1.17398 1.17398 0.7
7 1 -0.0339729 0.210472 2.07787 -0.179696 0.741226 -0.637939 0.10643 1.17398 1.17398 0.7
ITEM: TIMESTEP
15000
ITEM: NUMBER OF ATOMS
10
ITEM: BOX BOUNDS pp pp pp
-2.0000000000000000e+01 2.0000000000000000e+01
-2.0000000000000000e+01 2.0000000000000000e+01
-2.0000000000000000e+01 2.0000000000000000e+01
ITEM: ATOMS id type x y z quatw quati quatj quatk shapex shapey shapez
1 1 -0.33261 -0.439133 0.644628 0.989017 0.0178675 -0.143427 0.0309103 1.17398 1.17398 0.7
2 2 -0.318964 -0.714456 1.18402 0.939722 0.0418084 -0.0233792 0.338568 1.17398 1.17398 0.7
3 3 -0.133762 -0.913513 1.6245 0.820995 0.0300528 0.0179238 0.569862 1.17398 1.17398 0.7
8 2 0.32873 0.179157 1.72646 -0.10489 0.55097 -0.824959 0.0698071 1.17398 1.17398 0.7
9 3 0.603773 0.0456397 1.23431 0.0776097 -0.372519 0.910285 -0.163059 1.17398 1.17398 0.7
10 4 0.803229 -0.365993 0.990294 0.16268 0.0271828 0.984952 -0.051639 1.17398 1.17398 0.7
4 4 0.164611 -0.980136 2.08846 0.662379 -0.0283237 0.0229995 0.74828 1.17398 1.17398 0.7
5 1 0.464967 -0.784158 2.42781 0.360056 0.0513453 0.0724171 0.928698 1.17398 1.17398 0.7
6 4 -0.445755 0.0898913 2.46732 0.119378 0.924434 -0.353258 -0.0798668 1.17398 1.17398 0.7
7 1 -0.0339942 0.210521 2.07785 -0.179716 0.741217 -0.637944 0.106423 1.17398 1.17398 0.7
ITEM: TIMESTEP
16000
ITEM: NUMBER OF ATOMS
10
ITEM: BOX BOUNDS pp pp pp
-2.0000000000000000e+01 2.0000000000000000e+01
-2.0000000000000000e+01 2.0000000000000000e+01
-2.0000000000000000e+01 2.0000000000000000e+01
ITEM: ATOMS id type x y z quatw quati quatj quatk shapex shapey shapez
1 1 -0.332289 -0.43927 0.644598 0.989016 0.0178726 -0.14343 0.0309158 1.17398 1.17398 0.7
2 2 -0.318804 -0.714497 1.18416 0.939725 0.0418194 -0.0233847 0.338556 1.17398 1.17398 0.7
3 3 -0.133985 -0.913437 1.62441 0.820992 0.0300434 0.0179427 0.569866 1.17398 1.17398 0.7
8 2 0.328669 0.179329 1.72685 -0.104891 0.550979 -0.824954 0.0697987 1.17398 1.17398 0.7
9 3 0.603601 0.0455597 1.23436 0.0775968 -0.372528 0.910283 -0.163054 1.17398 1.17398 0.7
10 4 0.803417 -0.3661 0.99042 0.162672 0.0271851 0.984953 -0.0516369 1.17398 1.17398 0.7
4 4 0.164388 -0.98009 2.08839 0.662381 -0.0283337 0.0230034 0.748278 1.17398 1.17398 0.7
5 1 0.465053 -0.784412 2.42798 0.360048 0.0513439 0.072415 0.928701 1.17398 1.17398 0.7
6 4 -0.445719 0.0898426 2.46735 0.119375 0.924432 -0.353263 -0.0798715 1.17398 1.17398 0.7
7 1 -0.0340166 0.21057 2.07783 -0.179736 0.741209 -0.63795 0.106416 1.17398 1.17398 0.7
ITEM: TIMESTEP
17000
ITEM: NUMBER OF ATOMS
10
ITEM: BOX BOUNDS pp pp pp
-2.0000000000000000e+01 2.0000000000000000e+01
-2.0000000000000000e+01 2.0000000000000000e+01
-2.0000000000000000e+01 2.0000000000000000e+01
ITEM: ATOMS id type x y z quatw quati quatj quatk shapex shapey shapez
1 1 -0.331969 -0.439406 0.644569 0.989015 0.0178776 -0.143433 0.0309213 1.17398 1.17398 0.7
2 2 -0.318646 -0.714537 1.18431 0.939729 0.0418313 -0.0233906 0.338544 1.17398 1.17398 0.7
3 3 -0.134208 -0.913362 1.62433 0.820989 0.0300333 0.0179618 0.569871 1.17398 1.17398 0.7
8 2 0.328609 0.179502 1.72724 -0.104891 0.550988 -0.824948 0.0697903 1.17398 1.17398 0.7
9 3 0.60343 0.0454797 1.23442 0.0775837 -0.372536 0.910281 -0.163049 1.17398 1.17398 0.7
10 4 0.803606 -0.366207 0.990546 0.162665 0.0271874 0.984954 -0.0516348 1.17398 1.17398 0.7
4 4 0.164165 -0.980045 2.08832 0.662382 -0.0283437 0.0230074 0.748276 1.17398 1.17398 0.7
5 1 0.465141 -0.784665 2.42816 0.360039 0.0513425 0.0724128 0.928704 1.17398 1.17398 0.7
6 4 -0.445683 0.089794 2.46738 0.119373 0.92443 -0.353268 -0.0798761 1.17398 1.17398 0.7
7 1 -0.0340398 0.210619 2.07781 -0.179758 0.741199 -0.637956 0.106409 1.17398 1.17398 0.7
ITEM: TIMESTEP
18000
ITEM: NUMBER OF ATOMS
10
ITEM: BOX BOUNDS pp pp pp
-2.0000000000000000e+01 2.0000000000000000e+01
-2.0000000000000000e+01 2.0000000000000000e+01
-2.0000000000000000e+01 2.0000000000000000e+01
ITEM: ATOMS id type x y z quatw quati quatj quatk shapex shapey shapez
1 1 -0.331649 -0.439542 0.644539 0.989014 0.0178826 -0.143437 0.0309268 1.17398 1.17398 0.7
2 2 -0.318488 -0.714577 1.18445 0.939733 0.0418441 -0.0233969 0.338531 1.17398 1.17398 0.7
3 3 -0.13443 -0.913288 1.62425 0.820985 0.0300226 0.0179812 0.569876 1.17398 1.17398 0.7
8 2 0.328549 0.179674 1.72762 -0.10489 0.550998 -0.824942 0.0697818 1.17398 1.17398 0.7
9 3 0.603259 0.0453995 1.23447 0.0775703 -0.372545 0.91028 -0.163044 1.17398 1.17398 0.7
10 4 0.803795 -0.366313 0.990672 0.162658 0.0271896 0.984955 -0.0516327 1.17398 1.17398 0.7
4 4 0.163941 -0.979999 2.08825 0.662383 -0.0283539 0.0230114 0.748275 1.17398 1.17398 0.7
5 1 0.465228 -0.784918 2.42833 0.360031 0.051341 0.0724104 0.928708 1.17398 1.17398 0.7
6 4 -0.445647 0.0897453 2.46741 0.119371 0.924428 -0.353274 -0.0798808 1.17398 1.17398 0.7
7 1 -0.0340641 0.210668 2.0778 -0.17978 0.741189 -0.637962 0.106402 1.17398 1.17398 0.7
ITEM: TIMESTEP
19000
ITEM: NUMBER OF ATOMS
10
ITEM: BOX BOUNDS pp pp pp
-2.0000000000000000e+01 2.0000000000000000e+01
-2.0000000000000000e+01 2.0000000000000000e+01
-2.0000000000000000e+01 2.0000000000000000e+01
ITEM: ATOMS id type x y z quatw quati quatj quatk shapex shapey shapez
1 1 -0.331328 -0.439679 0.64451 0.989014 0.0178876 -0.14344 0.0309323 1.17398 1.17398 0.7
2 2 -0.318331 -0.714616 1.1846 0.939737 0.0418578 -0.0234035 0.338517 1.17398 1.17398 0.7
3 3 -0.134652 -0.913213 1.62417 0.820981 0.0300112 0.0180008 0.569882 1.17398 1.17398 0.7
8 2 0.328491 0.179846 1.72801 -0.104889 0.551008 -0.824936 0.0697732 1.17398 1.17398 0.7
9 3 0.603088 0.0453192 1.23452 0.0775568 -0.372555 0.910278 -0.163038 1.17398 1.17398 0.7
10 4 0.803983 -0.36642 0.990799 0.16265 0.0271919 0.984957 -0.0516306 1.17398 1.17398 0.7
4 4 0.163718 -0.979954 2.08818 0.662385 -0.0283641 0.0230153 0.748273 1.17398 1.17398 0.7
5 1 0.465316 -0.785171 2.42851 0.360022 0.0513395 0.0724078 0.928712 1.17398 1.17398 0.7
6 4 -0.445611 0.0896966 2.46744 0.119368 0.924426 -0.353279 -0.0798854 1.17398 1.17398 0.7
7 1 -0.0340893 0.210717 2.07778 -0.179803 0.741179 -0.637969 0.106394 1.17398 1.17398 0.7
ITEM: TIMESTEP
20000
ITEM: NUMBER OF ATOMS
10
ITEM: BOX BOUNDS pp pp pp
-2.0000000000000000e+01 2.0000000000000000e+01
-2.0000000000000000e+01 2.0000000000000000e+01
-2.0000000000000000e+01 2.0000000000000000e+01
ITEM: ATOMS id type x y z quatw quati quatj quatk shapex shapey shapez
1 1 -0.331008 -0.439815 0.644481 0.989013 0.0178926 -0.143443 0.0309378 1.17398 1.17398 0.7
2 2 -0.318175 -0.714654 1.18474 0.939742 0.0418724 -0.0234105 0.338503 1.17398 1.17398 0.7
3 3 -0.134874 -0.91314 1.62409 0.820977 0.0299991 0.0180206 0.569888 1.17398 1.17398 0.7
8 2 0.328433 0.180019 1.72839 -0.104888 0.551019 -0.82493 0.0697646 1.17398 1.17398 0.7
9 3 0.602917 0.0452389 1.23457 0.077543 -0.372564 0.910277 -0.163032 1.17398 1.17398 0.7
10 4 0.804172 -0.366527 0.990925 0.162643 0.0271942 0.984958 -0.0516285 1.17398 1.17398 0.7
4 4 0.163494 -0.979909 2.08812 0.662386 -0.0283745 0.0230193 0.748271 1.17398 1.17398 0.7
5 1 0.465403 -0.785423 2.42868 0.360014 0.051338 0.0724051 0.928715 1.17398 1.17398 0.7
6 4 -0.445575 0.0896479 2.46747 0.119366 0.924424 -0.353284 -0.0798901 1.17398 1.17398 0.7
7 1 -0.0341155 0.210766 2.07776 -0.179827 0.741168 -0.637977 0.106387 1.17398 1.17398 0.7
ITEM: TIMESTEP
21000
ITEM: NUMBER OF ATOMS
10
ITEM: BOX BOUNDS pp pp pp
-2.0000000000000000e+01 2.0000000000000000e+01
-2.0000000000000000e+01 2.0000000000000000e+01
-2.0000000000000000e+01 2.0000000000000000e+01
ITEM: ATOMS id type x y z quatw quati quatj quatk shapex shapey shapez
1 1 -0.330688 -0.439951 0.644451 0.989012 0.0178976 -0.143447 0.0309433 1.17398 1.17398 0.7
2 2 -0.318019 -0.714692 1.18488 0.939746 0.0418878 -0.0234179 0.338488 1.17398 1.17398 0.7
3 3 -0.135095 -0.913067 1.62401 0.820973 0.0299864 0.0180407 0.569894 1.17398 1.17398 0.7
8 2 0.328376 0.180191 1.72878 -0.104886 0.55103 -0.824924 0.0697559 1.17398 1.17398 0.7
9 3 0.602747 0.0451585 1.23462 0.0775291 -0.372573 0.910275 -0.163027 1.17398 1.17398 0.7
10 4 0.804361 -0.366633 0.991051 0.162635 0.0271965 0.984959 -0.0516264 1.17398 1.17398 0.7
4 4 0.163271 -0.979865 2.08805 0.662388 -0.028385 0.0230233 0.748269 1.17398 1.17398 0.7
5 1 0.465492 -0.785676 2.42886 0.360005 0.0513364 0.0724021 0.928719 1.17398 1.17398 0.7
6 4 -0.445539 0.0895992 2.46749 0.119364 0.924422 -0.353289 -0.0798947 1.17398 1.17398 0.7
7 1 -0.0341427 0.210816 2.07775 -0.179851 0.741157 -0.637984 0.106379 1.17398 1.17398 0.7
ITEM: TIMESTEP
22000
ITEM: NUMBER OF ATOMS
10
ITEM: BOX BOUNDS pp pp pp
-2.0000000000000000e+01 2.0000000000000000e+01
-2.0000000000000000e+01 2.0000000000000000e+01
-2.0000000000000000e+01 2.0000000000000000e+01
ITEM: ATOMS id type x y z quatw quati quatj quatk shapex shapey shapez
1 1 -0.330367 -0.440088 0.644422 0.989012 0.0179027 -0.14345 0.0309488 1.17398 1.17398 0.7
2 2 -0.317864 -0.714729 1.18502 0.939751 0.0419042 -0.0234257 0.338472 1.17398 1.17398 0.7
3 3 -0.135316 -0.912995 1.62393 0.820968 0.0299729 0.018061 0.569901 1.17398 1.17398 0.7
8 2 0.32832 0.180363 1.72916 -0.104884 0.551041 -0.824917 0.0697472 1.17398 1.17398 0.7
9 3 0.602576 0.045078 1.23467 0.0775149 -0.372583 0.910274 -0.163021 1.17398 1.17398 0.7
10 4 0.804549 -0.36674 0.991177 0.162628 0.0271988 0.984961 -0.0516243 1.17398 1.17398 0.7
4 4 0.163047 -0.97982 2.08798 0.662389 -0.0283957 0.0230273 0.748267 1.17398 1.17398 0.7
5 1 0.46558 -0.785928 2.42904 0.359995 0.0513348 0.072399 0.928723 1.17398 1.17398 0.7
6 4 -0.445503 0.0895505 2.46752 0.119362 0.92442 -0.353295 -0.0798994 1.17398 1.17398 0.7
7 1 -0.0341709 0.210865 2.07773 -0.179877 0.741144 -0.637992 0.106371 1.17398 1.17398 0.7
ITEM: TIMESTEP
23000
ITEM: NUMBER OF ATOMS
10
ITEM: BOX BOUNDS pp pp pp
-2.0000000000000000e+01 2.0000000000000000e+01
-2.0000000000000000e+01 2.0000000000000000e+01
-2.0000000000000000e+01 2.0000000000000000e+01
ITEM: ATOMS id type x y z quatw quati quatj quatk shapex shapey shapez
1 1 -0.330047 -0.440224 0.644392 0.989011 0.0179077 -0.143453 0.0309543 1.17398 1.17398 0.7
2 2 -0.31771 -0.714765 1.18516 0.939756 0.0419215 -0.0234338 0.338456 1.17398 1.17398 0.7
3 3 -0.135536 -0.912923 1.62385 0.820963 0.0299588 0.0180815 0.569908 1.17398 1.17398 0.7
8 2 0.328264 0.180535 1.72955 -0.104881 0.551054 -0.82491 0.0697384 1.17398 1.17398 0.7
9 3 0.602406 0.0449974 1.23472 0.0775006 -0.372592 0.910272 -0.163015 1.17398 1.17398 0.7
10 4 0.804738 -0.366847 0.991303 0.16262 0.027201 0.984962 -0.0516222 1.17398 1.17398 0.7
4 4 0.162823 -0.979776 2.08791 0.662391 -0.0284064 0.0230313 0.748265 1.17398 1.17398 0.7
5 1 0.465669 -0.786181 2.42921 0.359986 0.0513332 0.0723957 0.928727 1.17398 1.17398 0.7
6 4 -0.445467 0.0895018 2.46755 0.119359 0.924418 -0.3533 -0.079904 1.17398 1.17398 0.7
7 1 -0.0342001 0.210915 2.07771 -0.179903 0.741132 -0.638001 0.106363 1.17398 1.17398 0.7
ITEM: TIMESTEP
24000
ITEM: NUMBER OF ATOMS
10
ITEM: BOX BOUNDS pp pp pp
-2.0000000000000000e+01 2.0000000000000000e+01
-2.0000000000000000e+01 2.0000000000000000e+01
-2.0000000000000000e+01 2.0000000000000000e+01
ITEM: ATOMS id type x y z quatw quati quatj quatk shapex shapey shapez
1 1 -0.329727 -0.44036 0.644363 0.98901 0.0179127 -0.143457 0.0309598 1.17398 1.17398 0.7
2 2 -0.317556 -0.714801 1.1853 0.939761 0.0419397 -0.0234424 0.338439 1.17398 1.17398 0.7
3 3 -0.135756 -0.912852 1.62377 0.820958 0.0299439 0.0181022 0.569916 1.17398 1.17398 0.7
8 2 0.32821 0.180707 1.72993 -0.104878 0.551066 -0.824903 0.0697295 1.17398 1.17398 0.7
9 3 0.602236 0.0449167 1.23477 0.0774861 -0.372602 0.91027 -0.163008 1.17398 1.17398 0.7
10 4 0.804927 -0.366953 0.991429 0.162613 0.0272033 0.984963 -0.0516201 1.17398 1.17398 0.7
4 4 0.1626 -0.979732 2.08784 0.662392 -0.0284173 0.0230352 0.748263 1.17398 1.17398 0.7
5 1 0.465758 -0.786433 2.42939 0.359976 0.0513315 0.0723922 0.928731 1.17398 1.17398 0.7
6 4 -0.445431 0.0894532 2.46758 0.119357 0.924416 -0.353305 -0.0799087 1.17398 1.17398 0.7
7 1 -0.0342303 0.210964 2.0777 -0.17993 0.741119 -0.63801 0.106355 1.17398 1.17398 0.7
ITEM: TIMESTEP
25000
ITEM: NUMBER OF ATOMS
10
ITEM: BOX BOUNDS pp pp pp
-2.0000000000000000e+01 2.0000000000000000e+01
-2.0000000000000000e+01 2.0000000000000000e+01
-2.0000000000000000e+01 2.0000000000000000e+01
ITEM: ATOMS id type x y z quatw quati quatj quatk shapex shapey shapez
1 1 -0.329406 -0.440497 0.644334 0.989009 0.0179177 -0.14346 0.0309653 1.17398 1.17398 0.7
2 2 -0.317404 -0.714836 1.18543 0.939766 0.0419589 -0.0234513 0.338421 1.17398 1.17398 0.7