LAMMPS data file via write_data, version 29 Aug 2024, timestep = 100000, units = lj

10 atoms
4 atom types
10 ellipsoids

-20 20 xlo xhi
-20 20 ylo yhi
-20 20 zlo zhi

Atoms # ellipsoid

1 1 1 250 -0.3053823844711395 -0.4507211700620109 0.6421286749552206 0 0 0
2 2 1 250 -0.3082438188996563 -0.7153295633746457 1.1925977842416053 0 0 0
3 3 1 250 -0.15087423011278597 -0.9094974907518317 1.6202696803813543 0 0 0
8 2 1 250 0.3269154819652455 0.19361794733602433 1.7575613935722976 0 0 0
9 3 1 250 0.5894620732726913 0.038696390065479654 1.2383692816045841 0 0 0
10 4 1 250 0.8192682742561056 -0.37506081280685216 1.0010131898411867 0 0 0
4 4 1 250 0.14599921612196834 -0.976735088886205 2.083291876029489 0 0 0
5 1 1 250 0.4728989227890376 -0.8053742413318522 2.443001638559879 0 0 0
6 4 1 250 -0.4426963201417334 0.08575298753685741 2.4697542321414963 0 0 0
7 1 1 250 -0.03953203133669927 0.21500379925046267 2.078301185026784 0 0 0

Velocities

1 0.320321385294804 -0.13632815939410442 -0.029398292452023418 0.3064009492028237 -0.15808560233691588 0.35878007201886397
2 0.090834037160504 0.023129071323629485 0.052302509630604684 3.5799801807101788 -3.81970885876509 -5.526932111048026
3 -0.17918740065306848 0.01622646328334066 -0.014461887639604014 -3.2706779890049744 1.9691893374606608 3.4455544719117257
8 0.020866921225313292 0.1669114169224144 0.34279220586654663 -2.369734912801436 0.8613773779873146 -4.588111494894123
9 -0.16769229819449508 -0.08205991015213902 0.046854694219834826 -0.6021995043337438 0.5766322154944005 -0.8257317992921647
10 0.18870318272756448 -0.1066780134639517 0.12610657946741227 -0.05740397100183697 0.36748833227892685 0.1498775724372025
4 -0.2077551581411075 0.03653208565276115 -0.048433612383627665 -1.1343857045401828 0.33746375979379545 0.5695657395540743
5 0.0952511676931598 -0.24850820988158917 0.17981000958518595 -0.17936953852927423 -0.20983381309640636 1.0832997165852594
6 0.03598698404367743 -0.04868642973674152 0.02860105256592922 0.04007709957283992 -0.317943400069374 0.36438025397586354
7 -0.10803867504907928 0.05632688281621294 0.029206358846596666 2.975982438957474 -0.39626858530019315 4.949200635919496

Ellipsoids

1 1.173984503142341 1.173984503142341 0.7 0.9888711072659536 0.019326007091606014 -0.1440457210738614 0.031800454474950106
2 1.173984503142341 1.173984503142341 0.7 0.9418543317027018 0.04529417774142394 -0.03343817472975986 0.3312714050236264
3 1.173984503142341 1.173984503142341 0.7 0.8183557607198546 0.028336828893072177 0.025503561280409055 0.5734461102727344
8 1.173984503142341 1.173984503142341 0.7 -0.10082365741001724 0.545711437180323 -0.8285061486180685 0.07490780426036472
9 1.173984503142341 1.173984503142341 0.7 0.07433242908010206 -0.37058872996026515 0.911053419671891 -0.16468257259844712
10 1.173984503142341 1.173984503142341 0.7 0.161310342250753 0.026671981842352054 0.9851821323323426 -0.05180487429426751
4 1.173984503142341 1.173984503142341 0.7 0.6622841405225193 -0.02832816536599529 0.025497129087514347 0.7482827865637692
5 1.173984503142341 1.173984503142341 0.7 0.35775614414325213 0.05027530734142293 0.072951933079452 0.9296025765129147
6 1.173984503142341 1.173984503142341 0.7 0.11893516665383809 0.9249899996862494 -0.35228536391182663 -0.0783769671967991
7 1.173984503142341 1.173984503142341 0.7 -0.18702858431604455 0.7450626111742248 -0.6321765516801673 0.10126609296677327
