# LAMMPS data file written by OVITO Basic 3.9.2

10 atoms
10 ellipsoids
4 atom types

-10.0 10.0 xlo xhi
-10.0 10.0 ylo yhi
-10.0 10.0 zlo zhi

Masses

1 3.1575
2 3.1575
3 3.1575
4 3.1575

Atoms

1 1 -0.33741452300167507 -0.43708835412476305 0.6450685042019271 1 1 3.7269849963023267 0 0 0
2 2 -0.32142606102826937 -0.7137743037592722 1.1817366147004618 1 1 3.7269849963023267 0 0 0
3 3 -0.130363628207774 -0.9147144801536078 1.62581312195109 1 1 3.7269849963023267 0 0 0
4 4 0.16795127962282844 -0.9808507459807022 2.0894908590909003 1 1 3.7269849963023267 0 0 0
5 1 0.46370423490634166 -0.7803347954883079 2.4251986815515827 1 1 3.7269849963023267 0 0 0
6 4 -0.4462950185476711 0.09062163051035639 2.4668941268777607 2 1 3.7269849963023267 0 0 0
7 1 -0.03377054097560965 0.20979847489755046 2.078208732038921 2 1 3.7269849963023267 0 0 0
8 2 0.3297325391466579 0.17657587120899895 1.7206328374934152 2 1 3.7269849963023267 0 0 0
9 3 0.6063699309305985 0.04682595158675571 1.2335049647817748 2 1 3.7269849963023267 0 0 0
10 4 0.8003979559814726 -0.364393011459011 0.9884025318908612 2 1 3.7269849963023267 0 0 0

Velocities

1 0.1 0.0 0.1 0.0 0.0 0.0
2 -0.1 0.0 0.1 0.0 0.0 0.0
3 0.3 0.0 0.0 0.0 0.0 0.0
4 0.0 0.4 0.1 0.0 0.0 0.0
5 0.0 0.1 0.0 0.0 0.0 0.0
6 0.2 0.0 0.0 0.0 0.0 0.0
7 0.0 0.3 0.0 0.0 0.0 0.0
8 0.0 0.0 0.2 0.0 0.0 0.0
9 -0.2 0.0 0.0 0.0 0.0 0.0
10 0.1 0.0 0.0 0.0 0.0 0.0

Ellipsoids

1 0.5 0.5 1.0 1.0 0.0 0.0 0.0
2 0.5 1.0 0.5 0.9237853184 0.382910976 0.0 0.0
3 1.0 0.5 0.5 0.9237853184 0.0 0.382910976 0.0
4 0.5 0.5 1.0 0.9237853184 0.0 0.0 0.382910976
5 0.5 1.0 0.5 0.0 0.707106816 0.0 0.707106816
6 0.5 0.5 1.0 0.707106816 0.0 0.0 0.707106816
7 0.5 1.0 0.5 0.707106816 0.0 0.707106816 0.0
8 1.0 0.5 0.5 0.5774 0.5774 0.5774 0.0
9 0.5 0.5 1.0 0.5774 0.0 0.5774 0.5774
10 0.5 1.0 0.5 0.0 0.5774 0.5774 0.5774
