LAMMPS (29 Aug 2024 - Development - patch_17Apr2024-2021-gdcee028bd8)
Reading data file ...
  orthogonal box = (-20 -20 -20) to (20 20 20)
  1 by 1 by 1 MPI processor grid
  reading atoms ...
  10 atoms
  reading velocities ...
  10 velocities
  10 ellipsoids
  read_data CPU = 0.003 seconds
10 atoms in group all

CITE-CITE-CITE-CITE-CITE-CITE-CITE-CITE-CITE-CITE-CITE-CITE-CITE

Your simulation uses code contributions which should be cited:
- Type Label Framework: https://doi.org/10.1021/acs.jpcb.3c08419
The log file lists these citations in BibTeX format.

CITE-CITE-CITE-CITE-CITE-CITE-CITE-CITE-CITE-CITE-CITE-CITE-CITE

Generated 0 of 6 mixed pair_coeff terms from geometric mixing rule
Neighbor list info ...
  update: every = 1 steps, delay = 0 steps, check = yes
  max neighbors/atom: 2000, page size: 100000
  master list distance cutoff = 2.7118792
  ghost atom cutoff = 2.7118792
  binsize = 1.3559396, bins = 30 30 30
  1 neighbor lists, perpetual/occasional/extra = 1 0 0
  (1) pair oxdna/excv, perpetual
      attributes: half, newton on
      pair build: half/bin/atomonly/newton
      stencil: half/bin/3d
      bin: standard
Setting up Verlet run ...
  Unit style    : lj
  Current step  : 0
  Time step     : 1e-06
0  ekin = 44.3371698969355 |  erot = 0.0975195665025792 | epot = 6.02416036553696 | etot = 50.458849828975
Per MPI rank memory allocation (min/avg/max) = 4.907 | 4.907 | 4.907 Mbytes
   Step          Temp          E_pair         E_mol          TotEng         Press     
         0   3.2842348      0.60241604     0              5.036133       0.0015781328 
1000  ekin = 44.2673099853014 |  erot = 0.0996425218015619 | epot = 6.09189732187131 | etot = 50.4588498289743
2000  ekin = 44.1966039230512 |  erot = 0.102378895489336 | epot = 6.15986701043374 | etot = 50.4588498289743
3000  ekin = 44.1250668791926 |  erot = 0.105746320324635 | epot = 6.22803662945691 | etot = 50.4588498289741
4000  ekin = 44.0527145227553 |  erot = 0.109762644038968 | epot = 6.29637266217863 | etot = 50.4588498289729
5000  ekin = 43.9795630170552 |  erot = 0.114445914497271 | epot = 6.36484089742048 | etot = 50.458849828973
6000  ekin = 43.9056361861516 |  erot = 0.119813818320305 | epot = 6.43339982450297 | etot = 50.4588498289749
7000  ekin = 43.8309590549946 |  erot = 0.125883872907271 | epot = 6.50200690107301 | etot = 50.4588498289749
8000  ekin = 43.7555474332817 |  erot = 0.132674351167888 | epot = 6.57062804452537 | etot = 50.458849828975
9000  ekin = 43.6794176548093 |  erot = 0.140203703667641 | epot = 6.63922847049794 | etot = 50.4588498289749
10000  ekin = 43.6025866009703 |  erot = 0.148490537970936 | epot = 6.70777269003543 | etot = 50.4588498289767
11000  ekin = 43.525071691654 |  erot = 0.157553599405429 | epot = 6.77622453791967 | etot = 50.4588498289791
12000  ekin = 43.4468908753964 |  erot = 0.167411751137086 | epot = 6.84454720244827 | etot = 50.4588498289818
13000  ekin = 43.3680626187798 |  erot = 0.178083953572986 | epot = 6.91270325663147 | etot = 50.4588498289842
14000  ekin = 43.2886058950839 |  erot = 0.189589243110852 | epot = 6.98065469079211 | etot = 50.4588498289868
15000  ekin = 43.2085401721908 |  erot = 0.201946710256301 | epot = 7.04836294654057 | etot = 50.4588498289876
16000  ekin = 43.127885399748 |  erot = 0.21517547713076 | epot = 7.11578895210933 | etot = 50.4588498289881
17000  ekin = 43.0466619955964 |  erot = 0.229294674395083 | epot = 7.1828931589977 | etot = 50.4588498289892
18000  ekin = 42.9648908314702 |  erot = 0.244323417615852 | epot = 7.24963557990336 | etot = 50.4588498289894
19000  ekin = 42.8825932179781 |  erot = 0.260280783103427 | epot = 7.3159758279085 | etot = 50.45884982899
20000  ekin = 42.7997908888773 |  erot = 0.27718578325279 | epot = 7.38187315686043 | etot = 50.4588498289905
21000  ekin = 42.7165059846529 |  erot = 0.295057341420222 | epot = 7.44728650291626 | etot = 50.4588498289894
22000  ekin = 42.6327610354174 |  erot = 0.313914266370837 | epot = 7.51217452719858 | etot = 50.4588498289868
23000  ekin = 42.5485789431462 |  erot = 0.333775226333943 | epot = 7.57649565950061 | etot = 50.4588498289808
24000  ekin = 42.4639829632673 |  erot = 0.354658722705073 | epot = 7.6402081429957 | etot = 50.4588498289681
25000  ekin = 42.3789966856256 |  erot = 0.376583063435434 | epot = 7.70327007989235 | etot = 50.4588498289533
26000  ekin = 42.2936440148426 |  erot = 0.399566336151293 | epot = 7.76563947794553 | etot = 50.4588498289394
27000  ekin = 42.2079491500966 |  erot = 0.423626381047532 | epot = 7.82727429778225 | etot = 50.4588498289263
28000  ekin = 42.1219365643446 |  erot = 0.448780763601329 | epot = 7.88813250097332 | etot = 50.4588498289193
29000  ekin = 42.0356309830194 |  erot = 0.475046747153479 | epot = 7.94817209874151 | etot = 50.4588498289144
30000  ekin = 41.9490573622217 |  erot = 0.502441265406354 | epot = 8.00735120128071 | etot = 50.4588498289088
31000  ekin = 41.8622408664462 |  erot = 0.530980894888961 | epot = 8.065628067567 | etot = 50.4588498289021
32000  ekin = 41.7752068458672 |  erot = 0.560681827440799 | epot = 8.12296115559484 | etot = 50.4588498289029
33000  ekin = 41.6879808132196 |  erot = 0.591559842767419 | epot = 8.17930917292239 | etot = 50.4588498289095
34000  ekin = 41.6005884203107 |  erot = 0.62363028112164 | epot = 8.23463112748452 | etot = 50.4588498289169
35000  ekin = 41.5130554341972 |  erot = 0.656908016165385 | epot = 8.2888863785669 | etot = 50.4588498289295
36000  ekin = 41.4254077130661 |  erot = 0.69140742806783 | epot = 8.34203468780923 | etot = 50.4588498289432
37000  ekin = 41.3376711818601 |  erot = 0.727142376896212 | epot = 8.39403627019475 | etot = 50.458849828951
38000  ekin = 41.2498718076831 |  erot = 0.76412617635625 | epot = 8.44485184491568 | etot = 50.4588498289551
39000  ekin = 41.1620355750333 |  erot = 0.802371567939373 | epot = 8.49444268597769 | etot = 50.4588498289503
40000  ekin = 41.0741884609001 |  erot = 0.84189069553423 | epot = 8.54277067250759 | etot = 50.4588498289419
41000  ekin = 40.9863564097728 |  erot = 0.88269508055996 | epot = 8.589798338599 | etot = 50.4588498289318
42000  ekin = 40.8985653086021 |  erot = 0.924795597678511 | epot = 8.63548892264768 | etot = 50.4588498289283
43000  ekin = 40.8108409617605 |  erot = 0.96820245114307 | epot = 8.6798064160248 | etot = 50.4588498289284
44000  ekin = 40.7232090660474 |  erot = 1.01292515183905 | epot = 8.72271561104076 | etot = 50.4588498289272
45000  ekin = 40.6356951857823 |  erot = 1.05897249507362 | epot = 8.76418214807924 | etot = 50.4588498289352
46000  ekin = 40.5483247280358 |  erot = 1.10635253916869 | epot = 8.80417256173955 | etot = 50.458849828944
47000  ekin = 40.4611229180407 |  erot = 1.15507258491122 | epot = 8.84265432599661 | etot = 50.4588498289486
48000  ekin = 40.3741147748336 |  erot = 1.20513915591382 | epot = 8.87959589820205 | etot = 50.4588498289494
49000  ekin = 40.2873250871693 |  erot = 1.25655797993676 | epot = 8.91496676186113 | etot = 50.4588498289672
50000  ekin = 40.2007783897581 |  erot = 1.30933397122127 | epot = 8.94873746801928 | etot = 50.4588498289987
51000  ekin = 40.1144989398681 |  erot = 1.36347121388177 | epot = 8.98087967528391 | etot = 50.4588498290338
52000  ekin = 40.0285106943401 |  erot = 1.41897294640355 | epot = 9.01136618833765 | etot = 50.4588498290813
53000  ekin = 39.9428372870587 |  erot = 1.47584154728943 | epot = 9.04017099478049 | etot = 50.4588498291287
54000  ekin = 39.8575020069246 |  erot = 1.5340785218971 | epot = 9.06726930034573 | etot = 50.4588498291674
55000  ekin = 39.7725277763683 |  erot = 1.59368449050636 | epot = 9.0926375623221 | etot = 50.4588498291967
56000  ekin = 39.6879371304502 |  erot = 1.65465917765284 | epot = 9.11625352111531 | etot = 50.4588498292184
57000  ekin = 39.6037521965866 |  erot = 1.71700140276177 | epot = 9.13809622988608 | etot = 50.4588498292345
58000  ekin = 39.5199946749397 |  erot = 1.78070907211298 | epot = 9.15814608218789 | etot = 50.4588498292406
59000  ekin = 39.4366858195112 |  erot = 1.84577917216478 | epot = 9.1763848375609 | etot = 50.4588498292369
60000  ekin = 39.3538464199756 |  erot = 1.91220776426153 | epot = 9.19279564498726 | etot = 50.4588498292243
61000  ekin = 39.2715059616654 |  erot = 1.97998824817007 | epot = 9.20735561939846 | etot = 50.458849829234
62000  ekin = 39.1898015363096 |  erot = 2.04909153030483 | epot = 9.21995676261953 | etot = 50.458849829234
63000  ekin = 39.1087848981292 |  erot = 2.11950117740443 | epot = 9.23056375370889 | etot = 50.4588498292425
64000  ekin = 39.0284706481688 |  erot = 2.19120650519269 | epot = 9.23917267589156 | etot = 50.458849829253
65000  ekin = 38.94887284714 |  erot = 2.26419595886833 | epot = 9.24578102323841 | etot = 50.4588498292468
66000  ekin = 38.8700050058697 |  erot = 2.3384571203841 | epot = 9.25038770297246 | etot = 50.4588498292262
67000  ekin = 38.7918800766116 |  erot = 2.41397671704462 | epot = 9.2529930355334 | etot = 50.4588498291896
68000  ekin = 38.7145104452382 |  erot = 2.49074063141449 | epot = 9.25359875251136 | etot = 50.4588498291641
69000  ekin = 38.6379079243247 |  erot = 2.56873391252461 | epot = 9.25220799230415 | etot = 50.4588498291535
70000  ekin = 38.562083747137 |  erot = 2.64794078836169 | epot = 9.24882529364456 | etot = 50.4588498291433
71000  ekin = 38.4870485625311 |  erot = 2.72834467962267 | epot = 9.24345658699438 | etot = 50.4588498291481
72000  ekin = 38.4128391077305 |  erot = 2.80992996625593 | epot = 9.23608075518798 | etot = 50.4588498291744
73000  ekin = 38.3396118830404 |  erot = 2.89268762985293 | epot = 9.22655031630173 | etot = 50.4588498291951
74000  ekin = 38.2673973216581 |  erot = 2.9765988387366 | epot = 9.2148536688251 | etot = 50.4588498292198
75000  ekin = 38.196202563137 |  erot = 3.06164241891056 | epot = 9.20100484718463 | etot = 50.4588498292322
76000  ekin = 38.1260340679972 |  erot = 3.147796409611 | epot = 9.18501935162406 | etot = 50.4588498292323
77000  ekin = 38.0568976182171 |  erot = 3.23503808427172 | epot = 9.16691412673697 | etot = 50.4588498292258
78000  ekin = 37.988798318688 |  erot = 3.32334397260946 | epot = 9.14670753792928 | etot = 50.4588498292268
79000  ekin = 37.9217405996264 |  erot = 3.41268988378835 | epot = 9.12441934581865 | etot = 50.4588498292334
80000  ekin = 37.8557282199274 |  erot = 3.50305093062001 | epot = 9.10007067870078 | etot = 50.4588498292482
81000  ekin = 37.790764271452 |  erot = 3.59440155475309 | epot = 9.07368400306273 | etot = 50.4588498292679
82000  ekin = 37.7268511842269 |  erot = 3.68671555280353 | epot = 9.04528309226186 | etot = 50.4588498292923
83000  ekin = 37.6639907325421 |  erot = 3.7799661033749 | epot = 9.01489299339389 | etot = 50.4588498293109
84000  ekin = 37.6021840419266 |  erot = 3.87412579491606 | epot = 8.98253999247206 | etot = 50.4588498293148
85000  ekin = 37.5414315969788 |  erot = 3.96916665436166 | epot = 8.94825157796552 | etot = 50.458849829306
86000  ekin = 37.4817332500288 |  erot = 4.06506017649901 | epot = 8.91205640276128 | etot = 50.4588498292891
87000  ekin = 37.4230882306073 |  erot = 4.1617773540035 | epot = 8.87398424466248 | etot = 50.4588498292733
88000  ekin = 37.3654951556931 |  erot = 4.25928870808339 | epot = 8.83406596549315 | etot = 50.4588498292696
89000  ekin = 37.3089520407111 |  erot = 4.35756431967381 | epot = 8.79233346888708 | etot = 50.458849829272
90000  ekin = 37.2534563112504 |  erot = 4.45657386111885 | epot = 8.74881965689557 | etot = 50.4588498292648
91000  ekin = 37.1990048154706 |  erot = 4.55628662827978 | epot = 8.70355838551743 | etot = 50.4588498292679
92000  ekin = 37.1455938371631 |  erot = 4.65667157300681 | epot = 8.6565844191129 | etot = 50.4588498292828
93000  ekin = 37.0932191094338 |  erot = 4.75769733591111 | epot = 8.60793338395151 | etot = 50.4588498292964
94000  ekin = 37.0418758289726 |  erot = 4.85933227937467 | epot = 8.5576417209471 | etot = 50.4588498292944
95000  ekin = 36.991558670872 |  erot = 4.96154452073512 | epot = 8.50574663766367 | etot = 50.4588498292708
96000  ekin = 36.9422618039595 |  erot = 5.06430196558224 | epot = 8.45228605971384 | etot = 50.4588498292555
97000  ekin = 36.8939789066057 |  erot = 5.16757234110367 | epot = 8.39729858153658 | etot = 50.4588498292459
98000  ekin = 36.8467031829704 |  erot = 5.27132322941816 | epot = 8.34082341684002 | etot = 50.4588498292285
99000  ekin = 36.8004273796483 |  erot = 5.37552210083532 | epot = 8.28290034872527 | etot = 50.4588498292089
100000  ekin = 36.7551438211475 |  erot = 5.48013621561439 | epot = 8.22356979243889 | etot = 50.4588498292008
    100000   2.7226032      0.82235698     0              4.4978714      0.0013993453 
Loop time of 0.794395 on 1 procs for 100000 steps with 10 atoms

Performance: 10876.195 tau/day, 125881.885 timesteps/s, 1.259 Matom-step/s
100.0% CPU use with 1 MPI tasks x no OpenMP threads

MPI task timing breakdown:
Section |  min time  |  avg time  |  max time  |%varavg| %total
---------------------------------------------------------------
Pair    | 0.38312    | 0.38312    | 0.38312    |   0.0 | 48.23
Neigh   | 0          | 0          | 0          |   0.0 |  0.00
Comm    | 0.069031   | 0.069031   | 0.069031   |   0.0 |  8.69
Output  | 0.0055118  | 0.0055118  | 0.0055118  |   0.0 |  0.69
Modify  | 0.26775    | 0.26775    | 0.26775    |   0.0 | 33.70
Other   |            | 0.06898    |            |       |  8.68

Nlocal:             10 ave          10 max          10 min
Histogram: 1 0 0 0 0 0 0 0 0 0
Nghost:              0 ave           0 max           0 min
Histogram: 1 0 0 0 0 0 0 0 0 0
Neighs:             45 ave          45 max          45 min
Histogram: 1 0 0 0 0 0 0 0 0 0

Total # of neighbors = 45
Ave neighs/atom = 4.5
Neighbor list builds = 0
Dangerous builds = 0
System init for write_data ...
Generated 0 of 6 mixed pair_coeff terms from geometric mixing rule
Total wall time: 0:00:00
