LAMMPS (29 Aug 2024 - Development - patch_27Jun2024-1405-gdcee028bd8-modified)
KOKKOS mode with Kokkos version 4.3.1 is enabled (../kokkos.cpp:72)
Reading data file ...
  orthogonal box = (-20 -20 -20) to (20 20 20)
  1 by 1 by 1 MPI processor grid
  reading atoms ...
  10 atoms
  reading velocities ...
  10 velocities
  10 ellipsoids
  read_data CPU = 0.003 seconds
10 atoms in group all

CITE-CITE-CITE-CITE-CITE-CITE-CITE-CITE-CITE-CITE-CITE-CITE-CITE

Your simulation uses code contributions which should be cited:
- Type Label Framework: https://doi.org/10.1021/acs.jpcb.3c08419
The log file lists these citations in BibTeX format.

CITE-CITE-CITE-CITE-CITE-CITE-CITE-CITE-CITE-CITE-CITE-CITE-CITE

Generated 0 of 6 mixed pair_coeff terms from geometric mixing rule
Neighbor list info ...
  update: every = 1 steps, delay = 0 steps, check = yes
  max neighbors/atom: 2000, page size: 100000
  master list distance cutoff = 2.7118792
  ghost atom cutoff = 2.7118792
  binsize = 1.3559396, bins = 30 30 30
  1 neighbor lists, perpetual/occasional/extra = 1 0 0
  (1) pair oxdna/excv/kk, perpetual
      attributes: half, newton on, kokkos_device
      pair build: half/bin/newton/kk/device
      stencil: half/bin/3d
      bin: kk/device
Setting up Verlet run ...
  Unit style    : lj
  Current step  : 0
  Time step     : 1e-06
0  ekin = 0.0408626847564314 |  erot = 0 | epot = 10253.6666682448 | etot = 10253.7075309295
Per MPI rank memory allocation (min/avg/max) = 5.174 | 5.174 | 5.174 Mbytes
   Step          Temp          E_pair         E_mol          TotEng         Press     
         0   0.0030268655   1025.3667      0              1025.3708     -0.019817177  
1  ekin = 2.0323372284709 |  erot = 0 | epot = 10251.6749752286 | etot = 10253.7073124571
2  ekin = 8.15061416335635 |  erot = 0 | epot = 10245.5560279313 | etot = 10253.7066420947
3  ekin = 18.3849725812932 |  erot = 0 | epot = 10235.3205500104 | etot = 10253.7055225917
4  ekin = 32.7175057903561 |  erot = 0 | epot = 10220.9864527403 | etot = 10253.7039585307
5  ekin = 51.1231903805959 |  erot = 0 | epot = 10202.5787659156 | etot = 10253.7019562962
6  ekin = 73.5699824592015 |  erot = 0 | epot = 10180.1295415711 | etot = 10253.6995240303
7  ekin = 100.018940407722 |  erot = 0 | epot = 10153.6777311698 | etot = 10253.6966715776
8  ekin = 130.424373339726 |  erot = 0 | epot = 10123.2690370776 | etot = 10253.6934104173
9  ekin = 164.734014271464 |  erot = 0 | epot = 10088.9557393152 | etot = 10253.6897535867
10  ekin = 202.889216862373 |  erot = 0 | epot = 10050.7964987306 | etot = 10253.685715593
11  ekin = 244.82517443819 |  erot = 0 | epot = 10008.8561378796 | etot = 10253.6813123177
12  ekin = 290.471159878247 |  erot = 0 | epot = 9963.20540103465 | etot = 10253.6765609129
13  ekin = 339.750784831388 |  erot = 0 | epot = 9913.92069485788 | etot = 10253.6714796893
14  ekin = 392.582276622837 |  erot = 0 | epot = 9861.0838113778 | etot = 10253.6660880006
15  ekin = 448.878771127955 |  erot = 0 | epot = 9804.78163499383 | etot = 10253.6604061218
16  ekin = 508.54861981863 |  erot = 0 | epot = 9745.10583530536 | etot = 10253.654455124
17  ekin = 571.495709134507 |  erot = 0 | epot = 9682.15254761274 | etot = 10253.6482567473
18  ekin = 637.619790294271 |  erot = 0 | epot = 9616.02204297823 | etot = 10253.6418332725
19  ekin = 706.816817641812 |  erot = 0 | epot = 9546.81838975011 | etot = 10253.6352073919
20  ekin = 778.97929361792 |  erot = 0 | epot = 9474.64910846395 | etot = 10253.6284020819
21  ekin = 853.996618459715 |  erot = 0 | epot = 9399.6248220168 | etot = 10253.6214404765
22  ekin = 931.755442756648 |  erot = 0 | epot = 9321.85890298824 | etot = 10253.6143457449
23  ekin = 1012.14002103278 |  erot = 0 | epot = 9241.46711993912 | etot = 10253.6071409719
24  ekin = 1095.0325645792 |  erot = 0 | epot = 9158.56728446426 | etot = 10253.5998490435
25  ekin = 1180.31359182695 |  erot = 0 | epot = 9073.27890071099 | etot = 10253.5924925379
26  ekin = 1267.86227462792 |  erot = 0 | epot = 8985.72281899409 | etot = 10253.585093622
27  ekin = 1357.55677889898 |  erot = 0 | epot = 8896.0208950561 | etot = 10253.5776739551
28  ekin = 1449.27459817961 |  erot = 0 | epot = 8804.29565641986 | etot = 10253.5702545995
29  ekin = 1542.89287875703 |  erot = 0 | epot = 8710.66997718138 | etot = 10253.5628559384
30  ekin = 1638.2887351207 |  erot = 0 | epot = 8615.26676248151 | etot = 10253.5554976022
31  ekin = 1735.33955462203 |  erot = 0 | epot = 8518.20864377972 | etot = 10253.5481984018
32  ekin = 1833.92329033105 |  erot = 0 | epot = 8419.61768593963 | etot = 10253.5409762707
33  ekin = 1933.91874120029 |  erot = 0 | epot = 8319.61510701494 | etot = 10253.5338482152
34  ekin = 2035.20581876502 |  erot = 0 | epot = 8218.32101150776 | etot = 10253.5268302728
35  ekin = 2137.66579972759 |  erot = 0 | epot = 8115.85413775002 | etot = 10253.5199374776
36  ekin = 2241.18156389059 |  erot = 0 | epot = 8012.33161994444 | etot = 10253.513183835
37  ekin = 2345.63781701777 |  erot = 0 | epot = 7907.86876528524 | etot = 10253.506582303
38  ekin = 2450.92129831316 |  erot = 0 | epot = 7802.57884646733 | etot = 10253.5001447805
39  ekin = 2556.92097231517 |  erot = 0 | epot = 7696.57290978819 | etot = 10253.4938821034
40  ekin = 2663.52820510477 |  erot = 0 | epot = 7589.95959894185 | etot = 10253.4878040466
41  ekin = 2770.63692482301 |  erot = 0 | epot = 7482.84499450924 | etot = 10253.4819193322
42  ekin = 2878.14376658394 |  erot = 0 | epot = 7375.33246905953 | etot = 10253.4762356435
43  ekin = 2985.94820195278 |  erot = 0 | epot = 7267.52255769096 | etot = 10253.4707596437
44  ekin = 3093.95265323685 |  erot = 0 | epot = 7159.51284376345 | etot = 10253.4654970003
45  ekin = 3202.06259290743 |  erot = 0 | epot = 7051.39785950525 | etot = 10253.4604524127
46  ekin = 3310.18662853426 |  erot = 0 | epot = 6943.26900110967 | etot = 10253.4556296439
47  ekin = 3418.23657367113 |  erot = 0 | epot = 6835.21445788492 | etot = 10253.451031556
48  ekin = 3526.12750518071 |  erot = 0 | epot = 6727.31915496687 | etot = 10253.4466601476
49  ekin = 3633.7778075298 |  erot = 0 | epot = 6619.66470906411 | etot = 10253.4425165939
50  ekin = 3741.10920462213 |  erot = 0 | epot = 6512.32939666724 | etot = 10253.4386012894
51  ekin = 3848.04677976598 |  erot = 0 | epot = 6405.38813412467 | etot = 10253.4349138907
52  ekin = 3954.51898439724 |  erot = 0 | epot = 6298.91246896443 | etot = 10253.4314533617
53  ekin = 4060.45763619633 |  erot = 0 | epot = 6192.97058182227 | etot = 10253.4282180186
54  ekin = 4165.79790724984 |  erot = 0 | epot = 6087.62729832584 | etot = 10253.4252055757
55  ekin = 4270.47830291439 |  erot = 0 | epot = 5982.94411027664 | etot = 10253.422413191
56  ekin = 4374.44063204283 |  erot = 0 | epot = 5878.97920546896 | etot = 10253.4198375118
57  ekin = 4477.62996923056 |  erot = 0 | epot = 5775.78750548871 | etot = 10253.4174747193
58  ekin = 4579.99460973347 |  erot = 0 | epot = 5673.42071083937 | etot = 10253.4153205728
59  ekin = 4681.48601769952 |  erot = 0 | epot = 5571.92735275354 | etot = 10253.4133704531
60  ekin = 4782.0587683425 |  erot = 0 | epot = 5471.35285106106 | etot = 10253.4116194036
61  ekin = 4881.67048467103 |  erot = 0 | epot = 5371.73957750048 | etot = 10253.4100621715
62  ekin = 4980.2817693672 |  erot = 0 | epot = 5273.12692387949 | etot = 10253.4086932467
63  ekin = 5077.85613238896 |  erot = 0 | epot = 5175.55137450992 | etot = 10253.4075068989
64  ekin = 5174.35991484794 |  erot = 0 | epot = 5079.04658236554 | etot = 10253.4064972135
65  ekin = 5269.76220969079 |  erot = 0 | epot = 4983.64344843464 | etot = 10253.4056581254
66  ekin = 5364.03477968732 |  erot = 0 | epot = 4889.37020376414 | etot = 10253.4049834515
67  ekin = 5457.15197320274 |  erot = 0 | epot = 4796.25249371733 | etot = 10253.4044669201
68  ekin = 5549.0906382053 |  erot = 0 | epot = 4704.31346399467 | etot = 10253.4041022
69  ekin = 5639.8300349337 |  erot = 0 | epot = 4613.57384799283 | etot = 10253.4038829265
70  ekin = 5729.3517476221 |  erot = 0 | epot = 4524.05205510418 | etot = 10253.4038027263
71  ekin = 5817.63959565335 |  erot = 0 | epot = 4435.76425958631 | etot = 10253.4038552397
72  ekin = 5904.67954448529 |  erot = 0 | epot = 4348.72448965671 | etot = 10253.404034142
73  ekin = 5990.45961666795 |  erot = 0 | epot = 4262.94471649446 | etot = 10253.4043331624
74  ekin = 6074.96980324475 |  erot = 0 | epot = 4178.43494285659 | etot = 10253.4047461013
75  ekin = 6158.20197580539 |  erot = 0 | epot = 4095.20329104086 | etot = 10253.4052668463
76  ekin = 6240.14979943404 |  erot = 0 | epot = 4013.25608995155 | etot = 10253.4058893856
77  ekin = 6320.80864677328 |  erot = 0 | epot = 3932.59796104826 | etot = 10253.4066078215
78  ekin = 6400.1755134017 |  erot = 0 | epot = 3853.23190297928 | etot = 10253.407416381
79  ekin = 6478.24893470169 |  erot = 0 | epot = 3775.15937472348 | etot = 10253.4083094252
80  ekin = 6555.02890437348 |  erot = 0 | epot = 3698.38037708471 | etot = 10253.4092814582
81  ekin = 6630.51679473213 |  erot = 0 | epot = 3622.89353240179 | etot = 10253.4103271339
82  ekin = 6704.71527890588 |  erot = 0 | epot = 3548.69616235623 | etot = 10253.4114412621
83  ekin = 6777.62825503693 |  erot = 0 | epot = 3475.78436377613 | etot = 10253.4126188131
84  ekin = 6849.26077256943 |  erot = 0 | epot = 3404.15308235218 | etot = 10253.4138549216
85  ekin = 6919.61896069467 |  erot = 0 | epot = 3333.79618419518 | etot = 10253.4151448898
86  ekin = 6988.70995900876 |  erot = 0 | epot = 3264.7065251805 | etot = 10253.4164841893
87  ekin = 7056.54185042566 |  erot = 0 | epot = 3196.87601803606 | etot = 10253.4178684617
88  ekin = 7123.12359637582 |  erot = 0 | epot = 3130.29569714428 | etot = 10253.4192935201
89  ekin = 7188.46497430973 |  erot = 0 | epot = 3064.95578103818 | etot = 10253.4207553479
90  ekin = 7252.57651751575 |  erot = 0 | epot = 3000.8457325828 | etot = 10253.4222500985
91  ekin = 7315.46945725167 |  erot = 0 | epot = 2937.95431684217 | etot = 10253.4237740938
92  ekin = 7377.15566718183 |  erot = 0 | epot = 2876.26965664031 | etot = 10253.4253238221
93  ekin = 7437.64761010313 |  erot = 0 | epot = 2815.77928583291 | etot = 10253.426895936
94  ekin = 7496.95828693728 |  erot = 0 | epot = 2756.47020031232 | etot = 10253.4284872496
95  ekin = 7555.10118795979 |  erot = 0 | epot = 2698.32890677557 | etot = 10253.4300947354
96  ekin = 7612.09024623126 |  erot = 0 | epot = 2641.34146928956 | etot = 10253.4317155208
97  ekin = 7667.93979319167 |  erot = 0 | epot = 2585.49355369328 | etot = 10253.4333468849
98  ekin = 7722.66451637404 |  erot = 0 | epot = 2530.77046988022 | etot = 10253.4349862543
99  ekin = 7776.27941919054 |  erot = 0 | epot = 2477.15721200837 | etot = 10253.4366311989
100  ekin = 7828.79978274079 |  erot = 0 | epot = 2424.63849668753 | etot = 10253.4382794283
101  ekin = 7880.24112958989 |  erot = 0 | epot = 2373.19879919722 | etot = 10253.4399287871
102  ekin = 7930.61918946118 |  erot = 0 | epot = 2322.82238778936 | etot = 10253.4415772505
103  ekin = 7979.94986678758 |  erot = 0 | epot = 2273.49335613265 | etot = 10253.4432229202
104  ekin = 8028.24921006352 |  erot = 0 | epot = 2225.19565395603 | etot = 10253.4448640196
105  ekin = 8075.53338293909 |  erot = 0 | epot = 2177.91311595014 | etot = 10253.4464988892
106  ekin = 8121.81863699688 |  erot = 0 | epot = 2131.62948898592 | etot = 10253.4481259828
107  ekin = 8167.1212861521 |  erot = 0 | epot = 2086.32845771003 | etot = 10253.4497438621
108  ekin = 8211.45768261637 |  erot = 0 | epot = 2041.99366857669 | etot = 10253.4513511931
109  ekin = 8254.84419436547 |  erot = 0 | epot = 1998.60875237536 | etot = 10253.4529467408
110  ekin = 8297.29718405231 |  erot = 0 | epot = 1956.15734531372 | etot = 10253.454529366
111  ekin = 8338.8329893063 |  erot = 0 | epot = 1914.62310871378 | etot = 10253.4560980201
112  ekin = 8379.46790436165 |  erot = 0 | epot = 1873.98974737956 | etot = 10253.4576517412
113  ekin = 8419.21816295749 |  erot = 0 | epot = 1834.24102669282 | etot = 10253.4591896503
114  ekin = 8458.09992245413 |  erot = 0 | epot = 1795.36078849285 | etot = 10253.460710947
115  ekin = 8496.12924911071 |  erot = 0 | epot = 1757.33296579486 | etot = 10253.4622149056
116  ekin = 8533.32210447067 |  erot = 0 | epot = 1720.14159640084 | etot = 10253.4637008715
117  ekin = 8569.69433280292 |  erot = 0 | epot = 1683.77083545458 | etot = 10253.4651682575
118  ekin = 8605.26164954787 |  erot = 0 | epot = 1648.20496699221 | etot = 10253.4666165401
119  ekin = 8640.03963071884 |  erot = 0 | epot = 1613.42841453721 | etot = 10253.468045256
120  ekin = 8674.04370321104 |  erot = 0 | epot = 1579.42575078822 | etot = 10253.4694539993
121  ekin = 8707.28913597146 |  erot = 0 | epot = 1546.18170644589 | etot = 10253.4708424174
122  ekin = 8739.7910319849 |  erot = 0 | epot = 1513.68117822369 | etot = 10253.4722102086
123  ekin = 8771.56432103256 |  erot = 0 | epot = 1481.90923608644 | etot = 10253.473557119
124  ekin = 8802.62375318147 |  erot = 0 | epot = 1450.85112975797 | etot = 10253.4748829394
125  ekin = 8832.98389296418 |  erot = 0 | epot = 1420.49229453863 | etot = 10253.4761875028
126  ekin = 8862.65911421006 |  erot = 0 | epot = 1390.81835647148 | etot = 10253.4774706815
127  ekin = 8891.66359549073 |  erot = 0 | epot = 1361.81513689419 | etot = 10253.4787323849
128  ekin = 8920.01131614387 |  erot = 0 | epot = 1333.46865641293 | etot = 10253.4799725568
129  ekin = 8947.71605284097 |  erot = 0 | epot = 1305.76513833226 | etot = 10253.4811911732
130  ekin = 8974.79137666617 |  erot = 0 | epot = 1278.69101157407 | etot = 10253.4823882402
131  ekin = 9001.25065067456 |  erot = 0 | epot = 1252.23291311724 | etot = 10253.4835637918
132  ekin = 9027.10702789994 |  erot = 0 | epot = 1226.3776899878 | etot = 10253.4847178877
133  ekin = 9052.37344978323 |  erot = 0 | epot = 1201.1124008287 | etot = 10253.4858506119
134  ekin = 9077.06264499401 |  erot = 0 | epot = 1176.42431707642 | etot = 10253.4869620704
135  ekin = 9101.18712861909 |  erot = 0 | epot = 1152.30092377065 | etot = 10253.4880523897
136  ekin = 9124.75920169328 |  erot = 0 | epot = 1128.72992002197 | etot = 10253.4891217153
137  ekin = 9147.79095104837 |  erot = 0 | epot = 1105.69921916125 | etot = 10253.4901702096
138  ekin = 9170.29424945813 |  erot = 0 | epot = 1083.1969485932 | etot = 10253.4911980513
139  ekin = 9192.2807560576 |  erot = 0 | epot = 1061.21144937575 | etot = 10253.4922054334
140  ekin = 9213.76191701661 |  erot = 0 | epot = 1039.73127554516 | etot = 10253.4931925618
141  ekin = 9234.74896644804 |  erot = 0 | epot = 1018.74519320654 | etot = 10253.4941596546
142  ekin = 9255.2529275327 |  erot = 0 | epot = 998.24217940781 | etot = 10253.4951069405
143  ekin = 9275.28461384354 |  erot = 0 | epot = 978.21142081441 | etot = 10253.4960346579
144  ekin = 9294.85463085275 |  erot = 0 | epot = 958.642312201136 | etot = 10253.4969430539
145  ekin = 9313.97337760643 |  erot = 0 | epot = 939.524454776508 | etot = 10253.4978323829
146  ekin = 9332.65104855212 |  erot = 0 | epot = 920.847654354336 | etot = 10253.4987029065
147  ekin = 9350.89763550553 |  erot = 0 | epot = 902.60191938613 | etot = 10253.4995548917
148  ekin = 9368.72292974341 |  erot = 0 | epot = 884.777458867403 | etot = 10253.5003886108
149  ekin = 9386.13652421043 |  erot = 0 | epot = 867.364680130073 | etot = 10253.5012043405
150  ekin = 9403.14781582848 |  erot = 0 | epot = 850.354186532415 | etot = 10253.5020023609
151  ekin = 9419.76600789768 |  erot = 0 | epot = 833.736775057434 | etot = 10253.5027829551
152  ekin = 9436.00011257887 |  erot = 0 | epot = 817.503433829759 | etot = 10253.5035464086
153  ekin = 9451.85895344805 |  erot = 0 | epot = 801.645339560595 | etot = 10253.5042930086
154  ekin = 9467.35116811393 |  erot = 0 | epot = 786.153854929665 | etot = 10253.5050230436
155  ekin = 9482.48521089013 |  erot = 0 | epot = 771.020525912534 | etot = 10253.5057368027
156  ekin = 9497.26935551422 |  erot = 0 | epot = 756.237079061059 | etot = 10253.5064345753
157  ekin = 9511.71169790633 |  erot = 0 | epot = 741.795418744385 | etot = 10253.5071166507
158  ekin = 9525.82015896047 |  erot = 0 | epot = 727.68762435724 | etot = 10253.5077833177
159  ekin = 9539.6024873622 |  erot = 0 | epot = 713.905947501895 | etot = 10253.5084348641
160  ekin = 9553.06626242667 |  erot = 0 | epot = 700.442809149764 | etot = 10253.5090715764
161  ekin = 9566.21889695162 |  erot = 0 | epot = 687.290796788114 | etot = 10253.5096937397
162  ekin = 9579.06764008013 |  erot = 0 | epot = 674.442661557063 | etot = 10253.5103016372
163  ekin = 9591.61958016835 |  erot = 0 | epot = 661.89131538152 | etot = 10253.5108955499
164  ekin = 9603.88164765392 |  erot = 0 | epot = 649.629828102608 | etot = 10253.5114757565
165  ekin = 9615.86061792086 |  erot = 0 | epot = 637.651424612505 | etot = 10253.5120425334
166  ekin = 9627.56311415727 |  erot = 0 | epot = 625.949481996559 | etot = 10253.5125961538
167  ekin = 9638.9956102024 |  erot = 0 | epot = 614.517526686071 | etot = 10253.5131368885
168  ekin = 9650.16443337973 |  erot = 0 | epot = 603.349231625007 | etot = 10253.5136650047
169  ekin = 9661.0757673134 |  erot = 0 | epot = 592.438413453473 | etot = 10253.5141807669
170  ekin = 9671.73565472508 |  erot = 0 | epot = 581.779029710704 | etot = 10253.5146844358
171  ekin = 9682.15000020894 |  erot = 0 | epot = 571.365176059958 | etot = 10253.5151762689
172  ekin = 9692.32457298252 |  erot = 0 | epot = 561.191083537592 | etot = 10253.5156565201
173  ekin = 9702.26500961139 |  erot = 0 | epot = 551.251115828265 | etot = 10253.5161254397
174  ekin = 9711.97681670588 |  erot = 0 | epot = 541.539766568187 | etot = 10253.5165832741
175  ekin = 9721.46537358812 |  erot = 0 | epot = 532.051656677982 | etot = 10253.5170302661
176  ekin = 9730.73593492799 |  erot = 0 | epot = 522.781531726687 | etot = 10253.5174666547
177  ekin = 9739.79363334667 |  erot = 0 | epot = 513.724259328185 | etot = 10253.5178926749
178  ekin = 9748.64348198654 |  erot = 0 | epot = 504.874826571237 | etot = 10253.5183085578
179  ekin = 9757.29037704649 |  erot = 0 | epot = 496.228337484176 | etot = 10253.5187145307
180  ekin = 9765.73910028166 |  erot = 0 | epot = 487.780010535125 | etot = 10253.5191108168
181  ekin = 9773.99432146694 |  erot = 0 | epot = 479.525176168529 | etot = 10253.5194976355
182  ekin = 9782.06060082338 |  erot = 0 | epot = 471.459274378671 | etot = 10253.519875202
183  ekin = 9789.94239140717 |  erot = 0 | epot = 463.577852320751 | etot = 10253.5202437279
184  ekin = 9797.64404146059 |  erot = 0 | epot = 455.876561959943 | etot = 10253.5206034205
185  ekin = 9805.16979672454 |  erot = 0 | epot = 448.351157758843 | etot = 10253.5209544834
186  ekin = 9812.52380271247 |  erot = 0 | epot = 440.997494403587 | etot = 10253.5212971161
187  ekin = 9819.7101069454 |  erot = 0 | epot = 433.811524568823 | etot = 10253.5216315142
188  ekin = 9826.73266114799 |  erot = 0 | epot = 426.789296721708 | etot = 10253.5219578697
189  ekin = 9833.5953234055 |  erot = 0 | epot = 419.926952964959 | etot = 10253.5222763705
190  ekin = 9840.30186028165 |  erot = 0 | epot = 413.220726919002 | etot = 10253.5225872007
191  ekin = 9846.85594889752 |  erot = 0 | epot = 406.666941643141 | etot = 10253.5228905407
192  ekin = 9853.2611789715 |  erot = 0 | epot = 400.262007595642 | etot = 10253.5231865671
193  ekin = 9859.52105482043 |  erot = 0 | epot = 394.002420632598 | etot = 10253.523475453
194  ekin = 9865.63899732229 |  erot = 0 | epot = 387.884760045367 | etot = 10253.5237573677
195  ekin = 9871.61834584037 |  erot = 0 | epot = 381.905686636334 | etot = 10253.5240324767
196  ekin = 9877.46236010957 |  erot = 0 | epot = 376.061940832736 | etot = 10253.5243009423
197  ekin = 9883.17422208487 |  erot = 0 | epot = 370.350340838245 | etot = 10253.5245629231
198  ekin = 9888.75703775234 |  erot = 0 | epot = 364.767780821945 | etot = 10253.5248185743
199  ekin = 9894.21383890322 |  erot = 0 | epot = 359.311229144364 | etot = 10253.5250680476
200  ekin = 9899.54758487127 |  erot = 0 | epot = 353.977726620146 | etot = 10253.5253114914
201  ekin = 9904.76116423393 |  erot = 0 | epot = 348.764384816959 | etot = 10253.5255490509
202  ekin = 9909.85739647763 |  erot = 0 | epot = 343.668384390211 | etot = 10253.5257808678
203  ekin = 9914.83903362786 |  erot = 0 | epot = 338.686973453086 | etot = 10253.5260070809
204  ekin = 9919.70876184421 |  erot = 0 | epot = 333.817465981486 | etot = 10253.5262278257
205  ekin = 9924.46920298118 |  erot = 0 | epot = 329.057240253344 | etot = 10253.5264432345
206  ekin = 9929.12291611498 |  erot = 0 | epot = 324.403737321845 | etot = 10253.5266534368
207  ekin = 9933.67239903697 |  erot = 0 | epot = 319.854459522035 | etot = 10253.526858559
208  ekin = 9938.12008971425 |  erot = 0 | epot = 315.406969010318 | etot = 10253.5270587246
209  ekin = 9942.46836771783 |  erot = 0 | epot = 311.058886336296 | etot = 10253.5272540541
210  ekin = 9946.71955561904 |  erot = 0 | epot = 306.807889046459 | etot = 10253.5274446655
211  ekin = 9950.87592035458 |  erot = 0 | epot = 302.651710319154 | etot = 10253.5276306737
212  ekin = 9954.93967456086 |  erot = 0 | epot = 298.588137630332 | etot = 10253.5278121912
213  ekin = 9958.91297787804 |  erot = 0 | epot = 294.615011449516 | etot = 10253.5279893276
214  ekin = 9962.79793822449 |  erot = 0 | epot = 290.730223965455 | etot = 10253.5281621899
215  ekin = 9966.59661304199 |  erot = 0 | epot = 286.931717840929 | etot = 10253.5283308829
216  ekin = 9970.31101051237 |  erot = 0 | epot = 283.217484996158 | etot = 10253.5284955085
217  ekin = 9973.94309074614 |  erot = 0 | epot = 279.585565420283 | etot = 10253.5286561664
218  ekin = 9977.49476694346 |  erot = 0 | epot = 276.034046010379 | etot = 10253.5288129538
219  ekin = 9980.96790652821 |  erot = 0 | epot = 272.561059437474 | etot = 10253.5289659657
220  ekin = 9984.36433225555 |  erot = 0 | epot = 269.164783039024 | etot = 10253.5291152946
221  ekin = 9987.68582329355 |  erot = 0 | epot = 265.843437737347 | etot = 10253.5292610309
222  ekin = 9990.93411627938 |  erot = 0 | epot = 262.59528698346 | etot = 10253.5294032628
223  ekin = 9994.11090635065 |  erot = 0 | epot = 259.418635725829 | etot = 10253.5295420765
224  ekin = 9997.21784815228 |  erot = 0 | epot = 256.311829403493 | etot = 10253.5296775558
225  ekin = 10000.2565568195 |  erot = 0 | epot = 253.273252963088 | etot = 10253.5298097826
226  ekin = 10003.2286089378 |  erot = 0 | epot = 250.301329899223 | etot = 10253.529938837
227  ekin = 10006.135543479 |  erot = 0 | epot = 247.394521317755 | etot = 10253.5300647968
228  ekin = 10008.9788627167 |  erot = 0 | epot = 244.551325021447 | etot = 10253.5301877381
229  ekin = 10011.7600331176 |  erot = 0 | epot = 241.770274617537 | etot = 10253.5303077351
230  ekin = 10014.4804862135 |  erot = 0 | epot = 239.049938646728 | etot = 10253.5304248602
231  ekin = 10017.1416194509 |  erot = 0 | epot = 236.388919733151 | etot = 10253.530539184
232  ekin = 10019.7447970205 |  erot = 0 | epot = 233.785853754819 | etot = 10253.5306507753
233  ekin = 10022.2913506672 |  erot = 0 | epot = 231.239409034113 | etot = 10253.5307597013
234  ekin = 10024.7825804795 |  erot = 0 | epot = 228.74828554788 | etot = 10253.5308660274
235  ekin = 10027.2197556609 |  erot = 0 | epot = 226.311214156664 | etot = 10253.5309698176
236  ekin = 10029.6041152814 |  erot = 0 | epot = 223.926955852664 | etot = 10253.5310711341
237  ekin = 10031.9368690117 |  erot = 0 | epot = 221.594301025984 | etot = 10253.5311700377
238  ekin = 10034.2191978389 |  erot = 0 | epot = 219.312068748746 | etot = 10253.5312665876
239  ekin = 10036.452254765 |  erot = 0 | epot = 217.079106076673 | etot = 10253.5313608416
240  ekin = 10038.6371654884 |  erot = 0 | epot = 214.894287367724 | etot = 10253.5314528561
241  ekin = 10040.7750290686 |  erot = 0 | epot = 212.756513617392 | etot = 10253.531542686
242  ekin = 10042.8669185745 |  erot = 0 | epot = 210.664711810269 | etot = 10253.5316303848
243  ekin = 10044.9138817173 |  erot = 0 | epot = 208.617834287506 | etot = 10253.5317160048
244  ekin = 10046.9169414672 |  erot = 0 | epot = 206.614858129789 | etot = 10253.531799597
245  ekin = 10048.8770966555 |  erot = 0 | epot = 204.65478455546 | etot = 10253.531881211
246  ekin = 10050.7953225617 |  erot = 0 | epot = 202.736638333438 | etot = 10253.5319608952
247  ekin = 10052.6725714863 |  erot = 0 | epot = 200.859467210568 | etot = 10253.5320386969
248  ekin = 10054.509773309 |  erot = 0 | epot = 199.02234135307 | etot = 10253.5321146621
249  ekin = 10056.307836034 |  erot = 0 | epot = 197.22435280175 | etot = 10253.5321888357
250  ekin = 10058.0676463209 |  erot = 0 | epot = 195.464614940628 | etot = 10253.5322612615
251  ekin = 10059.7900700036 |  erot = 0 | epot = 193.742261978672 | etot = 10253.5323319822
252  ekin = 10061.4759525951 |  erot = 0 | epot = 192.056448444329 | etot = 10253.5324010394
253  ekin = 10063.1261197812 |  erot = 0 | epot = 190.406348692518 | etot = 10253.5324684737
254  ekin = 10064.7413779008 |  erot = 0 | epot = 188.791156423809 | etot = 10253.5325343246
255  ekin = 10066.3225144153 |  erot = 0 | epot = 187.210084215478 | etot = 10253.5325986308
256  ekin = 10067.8702983656 |  erot = 0 | epot = 185.66236306415 | etot = 10253.5326614297
257  ekin = 10069.3854808185 |  erot = 0 | epot = 184.147241939748 | etot = 10253.5327227582
258  ekin = 10070.8687953015 |  erot = 0 | epot = 182.663987350472 | etot = 10253.532782652
259  ekin = 10072.3209582274 |  erot = 0 | epot = 181.211882918538 | etot = 10253.5328411459
260  ekin = 10073.7426693075 |  erot = 0 | epot = 179.790228966415 | etot = 10253.5328982739
261  ekin = 10075.134611956 |  erot = 0 | epot = 178.398342113285 | etot = 10253.5329540693
262  ekin = 10076.4974536827 |  erot = 0 | epot = 177.035554881508 | etot = 10253.5330085642
263  ekin = 10077.8318464774 |  erot = 0 | epot = 175.701215312805 | etot = 10253.5330617902
264  ekin = 10079.1384271841 |  erot = 0 | epot = 174.39468659395 | etot = 10253.5331137781
265  ekin = 10080.417817866 |  erot = 0 | epot = 173.115346691721 | etot = 10253.5331645578
266  ekin = 10081.6706261616 |  erot = 0 | epot = 171.862587996883 | etot = 10253.5332141584
267  ekin = 10082.8974456316 |  erot = 0 | epot = 170.635816976979 | etot = 10253.5332626086
268  ekin = 10084.0988560983 |  erot = 0 | epot = 169.434453837708 | etot = 10253.533309936
269  ekin = 10085.2754239751 |  erot = 0 | epot = 168.257932192685 | etot = 10253.5333561678
270  ekin = 10086.427702589 |  erot = 0 | epot = 167.105698741367 | etot = 10253.5334013304
271  ekin = 10087.5562324945 |  erot = 0 | epot = 165.977212954933 | etot = 10253.5334454494
272  ekin = 10088.6615417801 |  erot = 0 | epot = 164.871946769945 | etot = 10253.5334885501
273  ekin = 10089.7441463673 |  erot = 0 | epot = 163.789384289565 | etot = 10253.5335306568
274  ekin = 10090.8045503014 |  erot = 0 | epot = 162.729021492171 | etot = 10253.5335717936
275  ekin = 10091.8432460364 |  erot = 0 | epot = 161.69036594715 | etot = 10253.5336119835
276  ekin = 10092.8607147118 |  erot = 0 | epot = 160.67293653773 | etot = 10253.5336512495
277  ekin = 10093.8574264229 |  erot = 0 | epot = 159.676263190635 | etot = 10253.5336896135
278  ekin = 10094.8338404848 |  erot = 0 | epot = 158.699886612426 | etot = 10253.5337270972
279  ekin = 10095.7904056893 |  erot = 0 | epot = 157.743358032338 | etot = 10253.5337637217
280  ekin = 10096.7275605559 |  erot = 0 | epot = 156.806238951455 | etot = 10253.5337995074
281  ekin = 10097.6457335763 |  erot = 0 | epot = 155.888100898076 | etot = 10253.5338344744
282  ekin = 10098.5453434532 |  erot = 0 | epot = 154.988525189096 | etot = 10253.5338686422
283  ekin = 10099.4267993327 |  erot = 0 | epot = 154.107102697271 | etot = 10253.5339020299
284  ekin = 10100.2905010319 |  erot = 0 | epot = 153.243433624209 | etot = 10253.5339346561
285  ekin = 10101.1368392598 |  erot = 0 | epot = 152.397127278938 | etot = 10253.5339665388
286  ekin = 10101.9661958337 |  erot = 0 | epot = 151.567801861932 | etot = 10253.5339976957
287  ekin = 10102.7789438896 |  erot = 0 | epot = 150.755084254428 | etot = 10253.534028144
288  ekin = 10103.5754480877 |  erot = 0 | epot = 149.958609812928 | etot = 10253.5340579006
289  ekin = 10104.3560648132 |  erot = 0 | epot = 149.17802216874 | etot = 10253.5340869819
290  ekin = 10105.1211423714 |  erot = 0 | epot = 148.412973032438 | etot = 10253.5341154038
291  ekin = 10105.8710211788 |  erot = 0 | epot = 147.663122003114 | etot = 10253.5341431819
292  ekin = 10106.6060339492 |  erot = 0 | epot = 146.928136382305 | etot = 10253.5341703315
293  ekin = 10107.3265058748 |  erot = 0 | epot = 146.207690992471 | etot = 10253.5341968673
294  ekin = 10108.0327548039 |  erot = 0 | epot = 145.501467999921 | etot = 10253.5342228039
295  ekin = 10108.7250914132 |  erot = 0 | epot = 144.809156742069 | etot = 10253.5342481553
296  ekin = 10109.4038193765 |  erot = 0 | epot = 144.130453558897 | etot = 10253.5342729354
297  ekin = 10110.069235529 |  erot = 0 | epot = 143.465061628558 | etot = 10253.5342971575
298  ekin = 10110.7216300279 |  erot = 0 | epot = 142.812690806963 | etot = 10253.5343208348
299  ekin = 10111.3612865088 |  erot = 0 | epot = 142.1730574713 | etot = 10253.5343439801
300  ekin = 10111.9884822385 |  erot = 0 | epot = 141.545884367359 | etot = 10253.5343666058
301  ekin = 10112.6034882636 |  erot = 0 | epot = 140.930900460568 | etot = 10253.5343887241
302  ekin = 10113.2065695562 |  erot = 0 | epot = 140.327840790665 | etot = 10253.5344103469
303  ekin = 10113.7979851558 |  erot = 0 | epot = 139.736446329891 | etot = 10253.5344314857
304  ekin = 10114.3779883072 |  erot = 0 | epot = 139.15646384464 | etot = 10253.5344521519
305  ekin = 10114.9468265959 |  erot = 0 | epot = 138.587645760455 | etot = 10253.5344723564
306  ekin = 10115.5047420797 |  erot = 0 | epot = 138.029750030305 | etot = 10253.53449211
307  ekin = 10116.0519714172 |  erot = 0 | epot = 137.482540006058 | etot = 10253.5345114233
308  ekin = 10116.5887459933 |  erot = 0 | epot = 136.945784313056 | etot = 10253.5345303064
309  ekin = 10117.1152920416 |  erot = 0 | epot = 136.419256727732 | etot = 10253.5345487694
310  ekin = 10117.6318307638 |  erot = 0 | epot = 135.902736058186 | etot = 10253.5345668219
311  ekin = 10118.138578446 |  erot = 0 | epot = 135.396006027637 | etot = 10253.5345844736
312  ekin = 10118.635746573 |  erot = 0 | epot = 134.898855160704 | etot = 10253.5346017337
313  ekin = 10119.1235419388 |  erot = 0 | epot = 134.41107667241 | etot = 10253.5346186112
314  ekin = 10119.6021667552 |  erot = 0 | epot = 133.932468359876 | etot = 10253.534635115
315  ekin = 10120.0718187571 |  erot = 0 | epot = 133.46283249661 | etot = 10253.5346512538
316  ekin = 10120.5326913065 |  erot = 0 | epot = 133.001975729352 | etot = 10253.5346670358
317  ekin = 10120.9849734921 |  erot = 0 | epot = 132.549708977382 | etot = 10253.5346824694
318  ekin = 10121.4288502284 |  erot = 0 | epot = 132.105847334257 | etot = 10253.5346975626
319  ekin = 10121.8645023513 |  erot = 0 | epot = 131.670209971904 | etot = 10253.5347123232
320  ekin = 10122.2921067118 |  erot = 0 | epot = 131.242620047004 | etot = 10253.5347267588
321  ekin = 10122.7118362673 |  erot = 0 | epot = 130.822904609626 | etot = 10253.534740877
322  ekin = 10123.1238601708 |  erot = 0 | epot = 130.41089451404 | etot = 10253.5347546848
323  ekin = 10123.5283438579 |  erot = 0 | epot = 130.006424331668 | etot = 10253.5347681896
324  ekin = 10123.925449132 |  erot = 0 | epot = 129.609332266109 | etot = 10253.5347813981
325  ekin = 10124.315334247 |  erot = 0 | epot = 129.21946007019 | etot = 10253.5347943172
326  ekin = 10124.6981539885 |  erot = 0 | epot = 128.836652964999 | etot = 10253.5348069535
327  ekin = 10125.0740597526 |  erot = 0 | epot = 128.460759560844 | etot = 10253.5348193134
328  ekin = 10125.4431996231 |  erot = 0 | epot = 128.091631780085 | etot = 10253.5348314032
329  ekin = 10125.8057184473 |  erot = 0 | epot = 127.729124781815 | etot = 10253.5348432291
330  ekin = 10126.1617579087 |  erot = 0 | epot = 127.373096888314 | etot = 10253.534854797
331  ekin = 10126.5114565996 |  erot = 0 | epot = 127.023409513256 | etot = 10253.5348661128
332  ekin = 10126.8549500907 |  erot = 0 | epot = 126.679927091619 | etot = 10253.5348771823
333  ekin = 10127.1923709997 |  erot = 0 | epot = 126.342517011243 | etot = 10253.534888011
334  ekin = 10127.5238490583 |  erot = 0 | epot = 126.011049546021 | etot = 10253.5348986043
335  ekin = 10127.8495111769 |  erot = 0 | epot = 125.685397790662 | etot = 10253.5349089676
336  ekin = 10128.1694815091 |  erot = 0 | epot = 125.365437596988 | etot = 10253.534919106
337  ekin = 10128.483881513 |  erot = 0 | epot = 125.051047511748 | etot = 10253.5349290248
338  ekin = 10128.7928300128 |  erot = 0 | epot = 124.74210871588 | etot = 10253.5349387287
339  ekin = 10129.0964432574 |  erot = 0 | epot = 124.438504965216 | etot = 10253.5349482226
340  ekin = 10129.3948349787 |  erot = 0 | epot = 124.140122532574 | etot = 10253.5349575113
341  ekin = 10129.6881164481 |  erot = 0 | epot = 123.846850151213 | etot = 10253.5349665994
342  ekin = 10129.9763965317 |  erot = 0 | epot = 123.558578959614 | etot = 10253.5349754913
343  ekin = 10130.2597817439 |  erot = 0 | epot = 123.275202447554 | etot = 10253.5349841915
344  ekin = 10130.5383763008 |  erot = 0 | epot = 122.996616403445 | etot = 10253.5349927042
345  ekin = 10130.8122821708 |  erot = 0 | epot = 122.722718862905 | etot = 10253.5350010337
346  ekin = 10131.0815991255 |  erot = 0 | epot = 122.453410058533 | etot = 10253.5350091841
347  ekin = 10131.3464247884 |  erot = 0 | epot = 122.188592370847 | etot = 10253.5350171592
348  ekin = 10131.6068546828 |  erot = 0 | epot = 121.928170280377 | etot = 10253.5350249632
349  ekin = 10131.8629822788 |  erot = 0 | epot = 121.672050320872 | etot = 10253.5350325997
350  ekin = 10132.1148990389 |  erot = 0 | epot = 121.420141033594 | etot = 10253.5350400725
351  ekin = 10132.3626944626 |  erot = 0 | epot = 121.172352922674 | etot = 10253.5350473852
352  ekin = 10132.6064561299 |  erot = 0 | epot = 120.928598411505 | etot = 10253.5350545414
353  ekin = 10132.8462697445 |  erot = 0 | epot = 120.688791800155 | etot = 10253.5350615446
354  ekin = 10133.0822191744 |  erot = 0 | epot = 120.452849223752 | etot = 10253.5350683982
355  ekin = 10133.3143864935 |  erot = 0 | epot = 120.220688611847 | etot = 10253.5350751054
356  ekin = 10133.5428520208 |  erot = 0 | epot = 119.992229648714 | etot = 10253.5350816695
357  ekin = 10133.7676943591 |  erot = 0 | epot = 119.767393734555 | etot = 10253.5350880937
358  ekin = 10133.9889904334 |  erot = 0 | epot = 119.546103947621 | etot = 10253.535094381
359  ekin = 10134.2068155273 |  erot = 0 | epot = 119.32828500719 | etot = 10253.5351005345
360  ekin = 10134.4212433197 |  erot = 0 | epot = 119.11386323741 | etot = 10253.5351065571
361  ekin = 10134.6323427939 |  erot = 0 | epot = 118.902768213779 | etot = 10253.5351110077
362  ekin = 10134.840178765 |  erot = 0 | epot = 118.694938024649 | etot = 10253.5351167897
363  ekin = 10135.0448177477 |  erot = 0 | epot = 118.490304701523 | etot = 10253.5351224492
364  ekin = 10135.2463274956 |  erot = 0 | epot = 118.288800493258 | etot = 10253.5351279889
365  ekin = 10135.444774326 |  erot = 0 | epot = 118.09035908544 | etot = 10253.5351334114
366  ekin = 10135.6402231505 |  erot = 0 | epot = 117.894915568922 | etot = 10253.5351387194
367  ekin = 10135.8327375061 |  erot = 0 | epot = 117.702406409088 | etot = 10253.5351439152
368  ekin = 10136.0223795856 |  erot = 0 | epot = 117.512769415818 | etot = 10253.5351490014
369  ekin = 10136.2092102661 |  erot = 0 | epot = 117.325943714137 | etot = 10253.5351539803
370  ekin = 10136.3932891387 |  erot = 0 | epot = 117.141869715531 | etot = 10253.5351588543
371  ekin = 10136.5746745357 |  erot = 0 | epot = 116.960489089926 | etot = 10253.5351636256
372  ekin = 10136.7534235583 |  erot = 0 | epot = 116.781744738295 | etot = 10253.5351682966
373  ekin = 10136.9295921034 |  erot = 0 | epot = 116.605580765889 | etot = 10253.5351728693
374  ekin = 10137.1032348898 |  erot = 0 | epot = 116.431942456079 | etot = 10253.5351773459
375  ekin = 10137.2744054837 |  erot = 0 | epot = 116.260776244793 | etot = 10253.5351817285
376  ekin = 10137.4431563236 |  erot = 0 | epot = 116.092029695522 | etot = 10253.5351860192
377  ekin = 10137.6092918886 |  erot = 0 | epot = 115.925851375377 | etot = 10253.535143264
378  ekin = 10137.772538305 |  erot = 0 | epot = 115.762604936497 | etot = 10253.5351432415
379  ekin = 10137.932842947 |  erot = 0 | epot = 115.60230027196 | etot = 10253.535143219
380  ekin = 10138.090205387 |  erot = 0 | epot = 115.44493780961 | etot = 10253.5351431966
381  ekin = 10138.2446251985 |  erot = 0 | epot = 115.290517975841 | etot = 10253.5351431744
382  ekin = 10138.3961019566 |  erot = 0 | epot = 115.139041195589 | etot = 10253.5351431522
383  ekin = 10138.5446352377 |  erot = 0 | epot = 114.990507892328 | etot = 10253.5351431301
384  ekin = 10138.69022462 |  erot = 0 | epot = 114.844918488059 | etot = 10253.5351431081
385  ekin = 10138.8328696828 |  erot = 0 | epot = 114.702273403309 | etot = 10253.5351430861
386  ekin = 10138.9725700072 |  erot = 0 | epot = 114.562573057118 | etot = 10253.5351430643
387  ekin = 10139.1093251755 |  erot = 0 | epot = 114.425817867037 | etot = 10253.5351430425
388  ekin = 10139.2431347718 |  erot = 0 | epot = 114.292008249119 | etot = 10253.5351430209
389  ekin = 10139.3739983814 |  erot = 0 | epot = 114.161144617913 | etot = 10253.5351429993
390  ekin = 10139.5019155913 |  erot = 0 | epot = 114.033227386458 | etot = 10253.5351429778
391  ekin = 10139.6268859901 |  erot = 0 | epot = 113.908256966277 | etot = 10253.5351429564
392  ekin = 10139.7489091677 |  erot = 0 | epot = 113.786233767368 | etot = 10253.5351429351
393  ekin = 10139.8679847157 |  erot = 0 | epot = 113.667158198199 | etot = 10253.5351429139
394  ekin = 10139.9841122271 |  erot = 0 | epot = 113.551030665702 | etot = 10253.5351428928
395  ekin = 10140.0972912965 |  erot = 0 | epot = 113.437851575266 | etot = 10253.5351428717
396  ekin = 10140.2075215201 |  erot = 0 | epot = 113.327621330731 | etot = 10253.5351428508
397  ekin = 10140.3148024956 |  erot = 0 | epot = 113.220340334379 | etot = 10253.5351428299
398  ekin = 10140.4191338223 |  erot = 0 | epot = 113.116008986934 | etot = 10253.5351428092
399  ekin = 10140.520515101 |  erot = 0 | epot = 113.014627687548 | etot = 10253.5351427885
400  ekin = 10140.6189459342 |  erot = 0 | epot = 112.9161968338 | etot = 10253.535142768
401  ekin = 10140.7144259258 |  erot = 0 | epot = 112.820716821687 | etot = 10253.5351427475
402  ekin = 10140.8069546815 |  erot = 0 | epot = 112.72818804562 | etot = 10253.5351427271
403  ekin = 10140.8965318084 |  erot = 0 | epot = 112.638610898414 | etot = 10253.5351427068
404  ekin = 10140.9831569154 |  erot = 0 | epot = 112.551985771288 | etot = 10253.5351426866
405  ekin = 10141.0668296127 |  erot = 0 | epot = 112.46831305385 | etot = 10253.5351426665
406  ekin = 10141.1475495124 |  erot = 0 | epot = 112.387593134103 | etot = 10253.5351426465
407  ekin = 10141.2253162282 |  erot = 0 | epot = 112.309826398425 | etot = 10253.5351426266
408  ekin = 10141.3001293753 |  erot = 0 | epot = 112.235013231574 | etot = 10253.5351426068
409  ekin = 10141.3719885704 |  erot = 0 | epot = 112.163154016676 | etot = 10253.5351425871
410  ekin = 10141.4408934323 |  erot = 0 | epot = 112.09424913522 | etot = 10253.5351425675
411  ekin = 10141.5068435809 |  erot = 0 | epot = 112.028298967056 | etot = 10253.535142548
412  ekin = 10141.5710079911 |  erot = 0 | epot = 111.964398007209 | etot = 10253.5354059983
413  ekin = 10141.6348957364 |  erot = 0 | epot = 111.900510242444 | etot = 10253.5354059788
414  ekin = 10141.6988465375 |  erot = 0 | epot = 111.836559421857 | etot = 10253.5354059593
415  ekin = 10141.7628600168 |  erot = 0 | epot = 111.772545923011 | etot = 10253.5354059398
416  ekin = 10141.8269357967 |  erot = 0 | epot = 111.708470123605 | etot = 10253.5354059203
417  ekin = 10141.8910734993 |  erot = 0 | epot = 111.644332401461 | etot = 10253.5354059008
418  ekin = 10141.9552727467 |  erot = 0 | epot = 111.580133134527 | etot = 10253.5354058812
419  ekin = 10142.0195331608 |  erot = 0 | epot = 111.515872700861 | etot = 10253.5354058617
420  ekin = 10142.0838543635 |  erot = 0 | epot = 111.451551478632 | etot = 10253.5354058421
421  ekin = 10142.1482359764 |  erot = 0 | epot = 111.387169846112 | etot = 10253.5354058225
422  ekin = 10142.2126776213 |  erot = 0 | epot = 111.322728181668 | etot = 10253.5354058029
423  ekin = 10142.2771789196 |  erot = 0 | epot = 111.258226863762 | etot = 10253.5354057833
424  ekin = 10142.3417394928 |  erot = 0 | epot = 111.193666270936 | etot = 10253.5354057637
425  ekin = 10142.4063589623 |  erot = 0 | epot = 111.129046781814 | etot = 10253.5354057441
426  ekin = 10142.4710369494 |  erot = 0 | epot = 111.064368775095 | etot = 10253.5354057245
427  ekin = 10142.5357730753 |  erot = 0 | epot = 110.999632629543 | etot = 10253.5354057048
428  ekin = 10142.6005669612 |  erot = 0 | epot = 110.934838723986 | etot = 10253.5354056852
429  ekin = 10142.6654182282 |  erot = 0 | epot = 110.869987437307 | etot = 10253.5354056655
430  ekin = 10142.7303264974 |  erot = 0 | epot = 110.805079148438 | etot = 10253.5354056458
431  ekin = 10142.7952913898 |  erot = 0 | epot = 110.740114236361 | etot = 10253.5354056262
432  ekin = 10142.8601794718 |  erot = 0 | epot = 110.675104120018 | etot = 10253.5352835918
433  ekin = 10142.9233910239 |  erot = 0 | epot = 110.61189389181 | etot = 10253.5352849157
434  ekin = 10142.9834674577 |  erot = 0 | epot = 110.551818786923 | etot = 10253.5352862446
435  ekin = 10143.0404245791 |  erot = 0 | epot = 110.49486299958 | etot = 10253.5352875786
436  ekin = 10143.0942782561 |  erot = 0 | epot = 110.441010661713 | etot = 10253.5352889178
437  ekin = 10143.145044419 |  erot = 0 | epot = 110.390245842974 | etot = 10253.535290262
438  ekin = 10143.1927390605 |  erot = 0 | epot = 110.342552550745 | etot = 10253.5352916113
439  ekin = 10143.2373782355 |  erot = 0 | epot = 110.297914730143 | etot = 10253.5352929657
440  ekin = 10143.2789780611 |  erot = 0 | epot = 110.256316264044 | etot = 10253.5352943252
441  ekin = 10143.3175547166 |  erot = 0 | epot = 110.217740973098 | etot = 10253.5352956897
442  ekin = 10143.3531244436 |  erot = 0 | epot = 110.182172615755 | etot = 10253.5352970594
443  ekin = 10143.3857035458 |  erot = 0 | epot = 110.149594888291 | etot = 10253.5352984341
444  ekin = 10143.4153083891 |  erot = 0 | epot = 110.11999142484 | etot = 10253.5352998139
445  ekin = 10143.4419554014 |  erot = 0 | epot = 110.093345797426 | etot = 10253.5353011988
446  ekin = 10143.4656610728 |  erot = 0 | epot = 110.069641516007 | etot = 10253.5353025888
447  ekin = 10143.4864419553 |  erot = 0 | epot = 110.04886202851 | etot = 10253.5353039838
448  ekin = 10143.5043146631 |  erot = 0 | epot = 110.030990720885 | etot = 10253.5353053839
449  ekin = 10143.519295872 |  erot = 0 | epot = 110.016010917151 | etot = 10253.5353067891
450  ekin = 10143.5314023199 |  erot = 0 | epot = 110.003905879454 | etot = 10253.5353081993
451  ekin = 10143.5406508065 |  erot = 0 | epot = 109.994658808121 | etot = 10253.5353096146
452  ekin = 10143.5470581932 |  erot = 0 | epot = 109.988252841728 | etot = 10253.5353110349
453  ekin = 10143.5506414031 |  erot = 0 | epot = 109.984671057165 | etot = 10253.5353124603
454  ekin = 10143.551417421 |  erot = 0 | epot = 109.983896469707 | etot = 10253.5353138907
455  ekin = 10143.549403293 |  erot = 0 | epot = 109.985912033093 | etot = 10253.5353153261
456  ekin = 10143.544616127 |  erot = 0 | epot = 109.990700639601 | etot = 10253.5353167666
457  ekin = 10143.5370730919 |  erot = 0 | epot = 109.998245120139 | etot = 10253.5353182121
458  ekin = 10143.5267914182 |  erot = 0 | epot = 110.00852824433 | etot = 10253.5353196625
459  ekin = 10143.5137883974 |  erot = 0 | epot = 110.021532720608 | etot = 10253.535321118
460  ekin = 10143.4980813822 |  erot = 0 | epot = 110.037241196317 | etot = 10253.5353225785
461  ekin = 10143.4796877861 |  erot = 0 | epot = 110.055636257812 | etot = 10253.535324044
462  ekin = 10143.4586250838 |  erot = 0 | epot = 110.07670043057 | etot = 10253.5353255144
463  ekin = 10143.4349108105 |  erot = 0 | epot = 110.100416179299 | etot = 10253.5353269898
464  ekin = 10143.4085625621 |  erot = 0 | epot = 110.126765908062 | etot = 10253.5353284702
465  ekin = 10143.3795979951 |  erot = 0 | epot = 110.155731960392 | etot = 10253.5353299555
466  ekin = 10143.3480348263 |  erot = 0 | epot = 110.187296619427 | etot = 10253.5353314457
467  ekin = 10143.3138908328 |  erot = 0 | epot = 110.221442108039 | etot = 10253.5353329409
468  ekin = 10143.2771995864 |  erot = 0 | epot = 110.258149543131 | etot = 10253.5353491295
469  ekin = 10143.2382025591 |  erot = 0 | epot = 110.297143873353 | etot = 10253.5353464324
470  ekin = 10143.1971002329 |  erot = 0 | epot = 110.338243474867 | etot = 10253.5353437078
471  ekin = 10143.1538598045 |  erot = 0 | epot = 110.381481151006 | etot = 10253.5353409555
472  ekin = 10143.1084481416 |  erot = 0 | epot = 110.426890034233 | etot = 10253.5353381758
473  ekin = 10143.0608317831 |  erot = 0 | epot = 110.474503585515 | etot = 10253.5353353686
474  ekin = 10143.0109769405 |  erot = 0 | epot = 110.524355593566 | etot = 10253.5353325341
475  ekin = 10142.9588494983 |  erot = 0 | epot = 110.576480173935 | etot = 10253.5353296723
476  ekin = 10142.9044150153 |  erot = 0 | epot = 110.630911767952 | etot = 10253.5353267832
477  ekin = 10142.8476387256 |  erot = 0 | epot = 110.687685141515 | etot = 10253.5353238671
478  ekin = 10142.7884855403 |  erot = 0 | epot = 110.746835383719 | etot = 10253.535320924
479  ekin = 10142.7269200488 |  erot = 0 | epot = 110.808397905328 | etot = 10253.5353179541
480  ekin = 10142.6629065205 |  erot = 0 | epot = 110.87240843707 | etot = 10253.5353149576
481  ekin = 10142.5964089067 |  erot = 0 | epot = 110.93890302777 | etot = 10253.5353119345
482  ekin = 10142.5273908428 |  erot = 0 | epot = 111.007918042305 | etot = 10253.5353088851
483  ekin = 10142.4558156502 |  erot = 0 | epot = 111.079490159368 | etot = 10253.5353058095
484  ekin = 10142.381646339 |  erot = 0 | epot = 111.153656369065 | etot = 10253.5353027081
485  ekin = 10142.3048456106 |  erot = 0 | epot = 111.230453970305 | etot = 10253.5352995809
486  ekin = 10142.2253758603 |  erot = 0 | epot = 111.309920568002 | etot = 10253.5352964283
487  ekin = 10142.1431991804 |  erot = 0 | epot = 111.392094070081 | etot = 10253.5352932504
488  ekin = 10142.0582773634 |  erot = 0 | epot = 111.47701268427 | etot = 10253.5352900477
489  ekin = 10141.9705719057 |  erot = 0 | epot = 111.564714914691 | etot = 10253.5352868203
490  ekin = 10141.8800440104 |  erot = 0 | epot = 111.655239558233 | etot = 10253.5352835687
491  ekin = 10141.7866545923 |  erot = 0 | epot = 111.748625700703 | etot = 10253.535280293
492  ekin = 10141.690364281 |  erot = 0 | epot = 111.844912712758 | etot = 10253.5352769937
493  ekin = 10141.5911334256 |  erot = 0 | epot = 111.944140245603 | etot = 10253.5352736712
494  ekin = 10141.4889220993 |  erot = 0 | epot = 112.046348226455 | etot = 10253.5352703258
495  ekin = 10141.3836901041 |  erot = 0 | epot = 112.15157685377 | etot = 10253.5352669579
496  ekin = 10141.2753969758 |  erot = 0 | epot = 112.25986659222 | etot = 10253.535263568
497  ekin = 10141.1640019891 |  erot = 0 | epot = 112.371258167424 | etot = 10253.5352601565
498  ekin = 10141.0494641635 |  erot = 0 | epot = 112.485792560422 | etot = 10253.5352567239
499  ekin = 10140.9317422688 |  erot = 0 | epot = 112.603511001889 | etot = 10253.5352532707
500  ekin = 10140.8107948313 |  erot = 0 | epot = 112.724454966078 | etot = 10253.5352497974
501  ekin = 10140.6865801401 |  erot = 0 | epot = 112.848666164504 | etot = 10253.5352463046
502  ekin = 10140.5590562534 |  erot = 0 | epot = 112.976186539336 | etot = 10253.5352427927
503  ekin = 10140.4281810059 |  erot = 0 | epot = 113.107058256519 | etot = 10253.5352392625
504  ekin = 10140.2939120158 |  erot = 0 | epot = 113.241323698605 | etot = 10253.5352357144
505  ekin = 10140.1562066919 |  erot = 0 | epot = 113.379025457288 | etot = 10253.5352321492
506  ekin = 10140.0150222418 |  erot = 0 | epot = 113.520206325649 | etot = 10253.5352285675
507  ekin = 10139.8703156798 |  erot = 0 | epot = 113.664909290092 | etot = 10253.5352249699
508  ekin = 10139.7220438353 |  erot = 0 | epot = 113.813177521972 | etot = 10253.5352213573
509  ekin = 10139.5701633613 |  erot = 0 | epot = 113.965054368917 | etot = 10253.5352177303
510  ekin = 10139.4146307438 |  erot = 0 | epot = 114.120583345818 | etot = 10253.5352140896
511  ekin = 10139.2554023107 |  erot = 0 | epot = 114.27980812551 | etot = 10253.5352104362
512  ekin = 10139.0924342416 |  erot = 0 | epot = 114.442772529112 | etot = 10253.5352067707
513  ekin = 10138.9256825781 |  erot = 0 | epot = 114.609520516042 | etot = 10253.5352030941
514  ekin = 10138.7551032336 |  erot = 0 | epot = 114.780096173685 | etot = 10253.5351994073
515  ekin = 10138.5806520043 |  erot = 0 | epot = 114.954543706726 | etot = 10253.535195711
516  ekin = 10138.4022845802 |  erot = 0 | epot = 115.13290742612 | etot = 10253.5351920063
517  ekin = 10138.2199565564 |  erot = 0 | epot = 115.315231737729 | etot = 10253.5351882941
518  ekin = 10138.0336234449 |  erot = 0 | epot = 115.501561130575 | etot = 10253.5351845754
519  ekin = 10137.8432406866 |  erot = 0 | epot = 115.691940164751 | etot = 10253.5351808513
520  ekin = 10137.6487636638 |  erot = 0 | epot = 115.886413458952 | etot = 10253.5351771227
521  ekin = 10137.4501477132 |  erot = 0 | epot = 116.085025677634 | etot = 10253.5351733908
522  ekin = 10137.2473481389 |  erot = 0 | epot = 116.287821517803 | etot = 10253.5351696567
523  ekin = 10137.0403202261 |  erot = 0 | epot = 116.49484569541 | etot = 10253.5351659215
524  ekin = 10136.829019255 |  erot = 0 | epot = 116.706142931372 | etot = 10253.5351621864
525  ekin = 10136.6134005154 |  erot = 0 | epot = 116.921757937197 | etot = 10253.5351584526
526  ekin = 10136.3934193212 |  erot = 0 | epot = 117.141735400211 | etot = 10253.5351547214
527  ekin = 10136.1690310256 |  erot = 0 | epot = 117.366119968396 | etot = 10253.535150994
528  ekin = 10135.9401910369 |  erot = 0 | epot = 117.59495623482 | etot = 10253.5351472717
529  ekin = 10135.7068548343 |  erot = 0 | epot = 117.828288721661 | etot = 10253.535143556
530  ekin = 10135.4689779842 |  erot = 0 | epot = 118.066161863822 | etot = 10253.535139848
531  ekin = 10135.2265161573 |  erot = 0 | epot = 118.30861999214 | etot = 10253.5351361494
532  ekin = 10134.9794251453 |  erot = 0 | epot = 118.555707316166 | etot = 10253.5351324615
533  ekin = 10134.7276608792 |  erot = 0 | epot = 118.807467906545 | etot = 10253.5351287857
534  ekin = 10134.4711794468 |  erot = 0 | epot = 119.063945676954 | etot = 10253.5351251237
535  ekin = 10134.2099371113 |  erot = 0 | epot = 119.325184365635 | etot = 10253.5351214769
536  ekin = 10133.9438903305 |  erot = 0 | epot = 119.591227516485 | etot = 10253.535117847
537  ekin = 10133.6729957758 |  erot = 0 | epot = 119.862118459736 | etot = 10253.5351142356
538  ekin = 10133.397210352 |  erot = 0 | epot = 120.137900292182 | etot = 10253.5351106442
539  ekin = 10133.1164912177 |  erot = 0 | epot = 120.418615856997 | etot = 10253.5351070747
540  ekin = 10132.8307958056 |  erot = 0 | epot = 120.704307723104 | etot = 10253.5351035287
541  ekin = 10132.5400818439 |  erot = 0 | epot = 120.995018164114 | etot = 10253.535100008
542  ekin = 10132.2443073776 |  erot = 0 | epot = 121.29078913683 | etot = 10253.5350965144
543  ekin = 10131.9434307904 |  erot = 0 | epot = 121.591662259315 | etot = 10253.5350930497
544  ekin = 10131.6374108273 |  erot = 0 | epot = 121.897678788525 | etot = 10253.5350896158
545  ekin = 10131.3262066171 |  erot = 0 | epot = 122.208879597498 | etot = 10253.5350862146
546  ekin = 10131.009777696 |  erot = 0 | epot = 122.525305152116 | etot = 10253.5350828481
547  ekin = 10130.6880840307 |  erot = 0 | epot = 122.846995487426 | etot = 10253.5350795182
548  ekin = 10130.3610860433 |  erot = 0 | epot = 123.173990183528 | etot = 10253.5350762269
549  ekin = 10130.0287446352 |  erot = 0 | epot = 123.506328341027 | etot = 10253.5350729762
550  ekin = 10129.6910212123 |  erot = 0 | epot = 123.844048556055 | etot = 10253.5350697684
551  ekin = 10129.3478777105 |  erot = 0 | epot = 124.187188894864 | etot = 10253.5350666054
552  ekin = 10128.9992766214 |  erot = 0 | epot = 124.535786867987 | etot = 10253.5350634894
553  ekin = 10128.6451810187 |  erot = 0 | epot = 124.889879403982 | etot = 10253.5350604226
554  ekin = 10128.2855545846 |  erot = 0 | epot = 125.249502822742 | etot = 10253.5350574073
555  ekin = 10127.9203616373 |  erot = 0 | epot = 125.614692808399 | etot = 10253.5350544457
556  ekin = 10127.5495671582 |  erot = 0 | epot = 125.985484381804 | etot = 10253.53505154
557  ekin = 10127.17313682 |  erot = 0 | epot = 126.361911872607 | etot = 10253.5350486926
558  ekin = 10126.7910370149 |  erot = 0 | epot = 126.744008890919 | etot = 10253.5350459058
559  ekin = 10126.4032348836 |  erot = 0 | epot = 127.131808298585 | etot = 10253.5350431821
560  ekin = 10126.0096983438 |  erot = 0 | epot = 127.525342180058 | etot = 10253.5350405239
561  ekin = 10125.6103961206 |  erot = 0 | epot = 127.924641812883 | etot = 10253.5350379335
562  ekin = 10125.2052977757 |  erot = 0 | epot = 128.329737637807 | etot = 10253.5350354135
563  ekin = 10124.7943737379 |  erot = 0 | epot = 128.740659228505 | etot = 10253.5350329664
564  ekin = 10124.3775953337 |  erot = 0 | epot = 129.157435260947 | etot = 10253.5350305947
565  ekin = 10123.9549348186 |  erot = 0 | epot = 129.580093482405 | etot = 10253.535028301
566  ekin = 10123.5263654077 |  erot = 0 | epot = 130.008660680105 | etot = 10253.5350260878
567  ekin = 10123.0918613083 |  erot = 0 | epot = 130.443162649548 | etot = 10253.5350239579
568  ekin = 10122.6513977513 |  erot = 0 | epot = 130.883624162493 | etot = 10253.5350219138
569  ekin = 10122.2049510236 |  erot = 0 | epot = 131.330068934623 | etot = 10253.5350199582
570  ekin = 10121.7524985009 |  erot = 0 | epot = 131.782519592897 | etot = 10253.5350180938
571  ekin = 10121.2940186808 |  erot = 0 | epot = 132.240997642617 | etot = 10253.5350163234
572  ekin = 10120.8294912154 |  erot = 0 | epot = 132.705523434187 | etot = 10253.5350146496
573  ekin = 10120.3588969456 |  erot = 0 | epot = 133.176116129626 | etot = 10253.5350130753
574  ekin = 10119.8822179343 |  erot = 0 | epot = 133.652793668796 | etot = 10253.5350116031
575  ekin = 10119.3994375006 |  erot = 0 | epot = 134.135572735399 | etot = 10253.535010236
576  ekin = 10118.910540254 |  erot = 0 | epot = 134.624468722742 | etot = 10253.5350089768
577  ekin = 10118.4155121289 |  erot = 0 | epot = 135.119495699275 | etot = 10253.5350078281
578  ekin = 10117.9143404191 |  erot = 0 | epot = 135.620666373938 | etot = 10253.5350067931
579  ekin = 10117.407013813 |  erot = 0 | epot = 136.127992061323 | etot = 10253.5350058743
580  ekin = 10116.8935224282 |  erot = 0 | epot = 136.641482646661 | etot = 10253.5350050749
581  ekin = 10116.3738578469 |  erot = 0 | epot = 137.161146550668 | etot = 10253.5350043976
582  ekin = 10115.848013151 |  erot = 0 | epot = 137.686990694251 | etot = 10253.5350038453
583  ekin = 10115.3159829578 |  erot = 0 | epot = 138.21902046311 | etot = 10253.5350034209
584  ekin = 10114.7777634551 |  erot = 0 | epot = 138.75723967224 | etot = 10253.5350031274
585  ekin = 10114.2333524373 |  erot = 0 | epot = 139.301650530359 | etot = 10253.5350029676
586  ekin = 10113.6827493402 |  erot = 0 | epot = 139.852253604292 | etot = 10253.5350029445
587  ekin = 10113.1259552777 |  erot = 0 | epot = 140.409047783315 | etot = 10253.535003061
588  ekin = 10112.5629730765 |  erot = 0 | epot = 140.972030243499 | etot = 10253.53500332
589  ekin = 10111.9938073123 |  erot = 0 | epot = 141.541196412057 | etot = 10253.5350037243
590  ekin = 10111.4184643452 |  erot = 0 | epot = 142.116539931741 | etot = 10253.535004277
591  ekin = 10110.8369523556 |  erot = 0 | epot = 142.698052625296 | etot = 10253.5350049808
592  ekin = 10110.2492813788 |  erot = 0 | epot = 143.285724459996 | etot = 10253.5350058388
593  ekin = 10109.6554633414 |  erot = 0 | epot = 143.879543512297 | etot = 10253.5350068537
594  ekin = 10109.0555120958 |  erot = 0 | epot = 144.479495932633 | etot = 10253.5350080284
595  ekin = 10108.4494434554 |  erot = 0 | epot = 145.085565910361 | etot = 10253.5350093658
596  ekin = 10107.8372752298 |  erot = 0 | epot = 145.697735638921 | etot = 10253.5350108687
597  ekin = 10107.2190272587 |  erot = 0 | epot = 146.315985281191 | etot = 10253.5350125398
598  ekin = 10106.594721447 |  erot = 0 | epot = 146.940292935115 | etot = 10253.5350143821
599  ekin = 10105.9643817986 |  erot = 0 | epot = 147.570634599587 | etot = 10253.5350163982
600  ekin = 10105.3280344502 |  erot = 0 | epot = 148.206984140663 | etot = 10253.5350185908
601  ekin = 10104.6857077046 |  erot = 0 | epot = 148.849313258093 | etot = 10253.5350209627
602  ekin = 10104.0374320643 |  erot = 0 | epot = 149.497591452236 | etot = 10253.5350235166
603  ekin = 10103.3832402636 |  erot = 0 | epot = 150.151785991366 | etot = 10253.535026255
604  ekin = 10102.7231673011 |  erot = 0 | epot = 150.811861879418 | etot = 10253.5350291805
605  ekin = 10102.0572504716 |  erot = 0 | epot = 151.477781824192 | etot = 10253.5350322958
606  ekin = 10101.3855293972 |  erot = 0 | epot = 152.149506206063 | etot = 10253.5350356032
607  ekin = 10100.7080460582 |  erot = 0 | epot = 152.826993047216 | etot = 10253.5350391054
608  ekin = 10100.0248448231 |  erot = 0 | epot = 153.51019798145 | etot = 10253.5350428046
609  ekin = 10099.3359724787 |  erot = 0 | epot = 154.199074224581 | etot = 10253.5350467032
610  ekin = 10098.6414782581 |  erot = 0 | epot = 154.893572545487 | etot = 10253.5350508036
611  ekin = 10097.9414138702 |  erot = 0 | epot = 155.593641237811 | etot = 10253.535055108
612  ekin = 10097.2358335262 |  erot = 0 | epot = 156.299226092381 | etot = 10253.5350596186
613  ekin = 10096.5247939671 |  erot = 0 | epot = 157.01027037037 | etot = 10253.5350643374
614  ekin = 10095.8083544894 |  erot = 0 | epot = 157.726714777233 | etot = 10253.5350692666
615  ekin = 10095.0865769707 |  erot = 0 | epot = 158.448497437462 | etot = 10253.5350744081
616  ekin = 10094.3595258937 |  erot = 0 | epot = 159.175553870188 | etot = 10253.5350797639
617  ekin = 10093.6272683701 |  erot = 0 | epot = 159.907816965686 | etot = 10253.5350853358
618  ekin = 10092.8898741627 |  erot = 0 | epot = 160.645216962794 | etot = 10253.5350911255
619  ekin = 10092.1474157074 |  erot = 0 | epot = 161.3876814273 | etot = 10253.5350971347
620  ekin = 10091.3999681336 |  erot = 0 | epot = 162.13513523134 | etot = 10253.5351033649
621  ekin = 10090.647609284 |  erot = 0 | epot = 162.887500533829 | etot = 10253.5351098178
622  ekin = 10089.8904197328 |  erot = 0 | epot = 163.644696761972 | etot = 10253.5351164947
623  ekin = 10089.1284828031 |  erot = 0 | epot = 164.406640593892 | etot = 10253.535123397
624  ekin = 10088.3618845833 |  erot = 0 | epot = 165.17324594242 | etot = 10253.5351305257
625  ekin = 10087.5907139421 |  erot = 0 | epot = 165.944423940064 | etot = 10253.5351378822
626  ekin = 10086.815062542 |  erot = 0 | epot = 166.720082925222 | etot = 10253.5351454673
627  ekin = 10086.0350248523 |  erot = 0 | epot = 167.500128429659 | etot = 10253.5351532819
628  ekin = 10085.2506981597 |  erot = 0 | epot = 168.284463167286 | etot = 10253.535161327
629  ekin = 10084.4621825788 |  erot = 0 | epot = 169.072987024288 | etot = 10253.5351696031
630  ekin = 10083.6695810602 |  erot = 0 | epot = 169.865597050635 | etot = 10253.5351781108
631  ekin = 10082.8729993976 |  erot = 0 | epot = 170.662187453 | etot = 10253.5351868506
632  ekin = 10082.0725462337 |  erot = 0 | epot = 171.462649589145 | etot = 10253.5351958229
633  ekin = 10081.2683330639 |  erot = 0 | epot = 172.266871963786 | etot = 10253.5352050277
634  ekin = 10080.4604742392 |  erot = 0 | epot = 173.074740225988 | etot = 10253.5352144652
635  ekin = 10079.6490869672 |  erot = 0 | epot = 173.886137168126 | etot = 10253.5352241354
636  ekin = 10078.8342913115 |  erot = 0 | epot = 174.700942726429 | etot = 10253.535234038
637  ekin = 10078.0162101895 |  erot = 0 | epot = 175.519033983168 | etot = 10253.5352441727
638  ekin = 10077.1949693686 |  erot = 0 | epot = 176.340285170496 | etot = 10253.5352545391
639  ekin = 10076.3706974606 |  erot = 0 | epot = 177.164567675985 | etot = 10253.5352651366
640  ekin = 10075.5435259144 |  erot = 0 | epot = 177.991750049902 | etot = 10253.5352759643
641  ekin = 10074.7135890073 |  erot = 0 | epot = 178.821698014219 | etot = 10253.5352870216
642  ekin = 10073.8810238337 |  erot = 0 | epot = 179.654274473438 | etot = 10253.5352983072
643  ekin = 10073.0459702928 |  erot = 0 | epot = 180.489339527215 | etot = 10253.53530982
644  ekin = 10072.2085710738 |  erot = 0 | epot = 181.326750484836 | etot = 10253.5353215587
645  ekin = 10071.3689716402 |  erot = 0 | epot = 182.166361881567 | etot = 10253.5353335217
646  ekin = 10070.5273202106 |  erot = 0 | epot = 183.008025496898 | etot = 10253.5353457075
647  ekin = 10069.6837677395 |  erot = 0 | epot = 183.851590374716 | etot = 10253.5353581143
648  ekin = 10068.8384678945 |  erot = 0 | epot = 184.696902845423 | etot = 10253.5353707399
649  ekin = 10067.9915770324 |  erot = 0 | epot = 185.543806550022 | etot = 10253.5353835824
650  ekin = 10067.1432541732 |  erot = 0 | epot = 186.392142466196 | etot = 10253.5353966394
651  ekin = 10066.2936609721 |  erot = 0 | epot = 187.241748936393 | etot = 10253.5354099085
652  ekin = 10065.442961689 |  erot = 0 | epot = 188.092461697951 | etot = 10253.535423387
653  ekin = 10064.5913231569 |  erot = 0 | epot = 188.944113915251 | etot = 10253.5354370722
654  ekin = 10063.7389147471 |  erot = 0 | epot = 189.796536213948 | etot = 10253.535450961
655  ekin = 10062.8859083332 |  erot = 0 | epot = 190.649556717262 | etot = 10253.5354650504
656  ekin = 10062.0324782527 |  erot = 0 | epot = 191.503001084364 | etot = 10253.5354793371
657  ekin = 10061.1788012667 |  erot = 0 | epot = 192.356692550855 | etot = 10253.5354938175
658  ekin = 10060.3250565168 |  erot = 0 | epot = 193.210451971349 | etot = 10253.5355084881
659  ekin = 10059.4714254809 |  erot = 0 | epot = 194.064097864174 | etot = 10253.5355233451
660  ekin = 10058.6180919262 |  erot = 0 | epot = 194.917446458173 | etot = 10253.5355383844
661  ekin = 10057.7652418602 |  erot = 0 | epot = 195.770311741648 | etot = 10253.5355536018
662  ekin = 10056.9130634798 |  erot = 0 | epot = 196.622505513402 | etot = 10253.5355689932
663  ekin = 10056.061747118 |  erot = 0 | epot = 197.473837435914 | etot = 10253.5355845539
664  ekin = 10055.2114851886 |  erot = 0 | epot = 198.324115090624 | etot = 10253.5356002793
665  ekin = 10054.3624721292 |  erot = 0 | epot = 199.173144035333 | etot = 10253.5356161645
666  ekin = 10053.5149043408 |  erot = 0 | epot = 200.0207278637 | etot = 10253.5356322045
667  ekin = 10052.6689801274 |  erot = 0 | epot = 200.866668266845 | etot = 10253.5356483943
668  ekin = 10051.8248996313 |  erot = 0 | epot = 201.710765097022 | etot = 10253.5356647283
669  ekin = 10050.9828647677 |  erot = 0 | epot = 202.552816433369 | etot = 10253.5356812011
670  ekin = 10050.1430791573 |  erot = 0 | epot = 203.392618649711 | etot = 10253.535697807
671  ekin = 10049.3057480558 |  erot = 0 | epot = 204.229966484394 | etot = 10253.5357145402
672  ekin = 10048.4710782826 |  erot = 0 | epot = 205.064653112134 | etot = 10253.5357313947
673  ekin = 10047.6392781464 |  erot = 0 | epot = 205.896470217866 | etot = 10253.5357483643
674  ekin = 10046.8105573701 |  erot = 0 | epot = 206.725208072544 | etot = 10253.5357654426
675  ekin = 10045.9851270124 |  erot = 0 | epot = 207.550655610893 | etot = 10253.5357826233
676  ekin = 10045.1631993886 |  erot = 0 | epot = 208.37260051106 | etot = 10253.5357998997
677  ekin = 10044.3449879888 |  erot = 0 | epot = 209.190829276152 | etot = 10253.535817265
678  ekin = 10043.5307073946 |  erot = 0 | epot = 210.005127317607 | etot = 10253.5358347122
679  ekin = 10042.7205731941 |  erot = 0 | epot = 210.815279040367 | etot = 10253.5358522345
680  ekin = 10041.9148018946 |  erot = 0 | epot = 211.621067929831 | etot = 10253.5358698244
681  ekin = 10041.1136108342 |  erot = 0 | epot = 212.422276640517 | etot = 10253.5358874748
682  ekin = 10040.3172180916 |  erot = 0 | epot = 213.218687086406 | etot = 10253.535905178
683  ekin = 10039.5258423937 |  erot = 0 | epot = 214.010080532926 | etot = 10253.5359229266
684  ekin = 10038.7397030224 |  erot = 0 | epot = 214.796237690511 | etot = 10253.5359407129
685  ekin = 10037.9590197192 |  erot = 0 | epot = 215.576938809694 | etot = 10253.5359585289
686  ekin = 10037.184012589 |  erot = 0 | epot = 216.351963777685 | etot = 10253.5359763667
687  ekin = 10036.4149020019 |  erot = 0 | epot = 217.121092216364 | etot = 10253.5359942183
688  ekin = 10035.6519084938 |  erot = 0 | epot = 217.884103581643 | etot = 10253.5360120755
689  ekin = 10034.8952526658 |  erot = 0 | epot = 218.64077726413 | etot = 10253.53602993
690  ekin = 10034.1451550824 |  erot = 0 | epot = 219.39089269104 | etot = 10253.5360477734
691  ekin = 10033.4018361681 |  erot = 0 | epot = 220.134229429272 | etot = 10253.5360655974
692  ekin = 10032.6655161037 |  erot = 0 | epot = 220.870567289612 | etot = 10253.5360833933
693  ekin = 10031.9364147207 |  erot = 0 | epot = 221.59968643196 | etot = 10253.5361011526
694  ekin = 10031.2147513951 |  erot = 0 | epot = 222.321367471545 | etot = 10253.5361188666
695  ekin = 10030.5007449405 |  erot = 0 | epot = 223.03539158602 | etot = 10253.5361365265
696  ekin = 10029.7946135001 |  erot = 0 | epot = 223.741540623393 | etot = 10253.5361541235
697  ekin = 10029.0965744381 |  erot = 0 | epot = 224.439597210698 | etot = 10253.5361716488
698  ekin = 10028.40684423 |  erot = 0 | epot = 225.129344863336 | etot = 10253.5361890933
699  ekin = 10027.7256383533 |  erot = 0 | epot = 225.810568095 | etot = 10253.5362064483
700  ekin = 10027.0531711766 |  erot = 0 | epot = 226.483052528111 | etot = 10253.5362237047
701  ekin = 10026.3896558488 |  erot = 0 | epot = 227.146585004672 | etot = 10253.5362408534
702  ekin = 10025.7353041881 |  erot = 0 | epot = 227.800953697464 | etot = 10253.5362578855
703  ekin = 10025.0903265705 |  erot = 0 | epot = 228.44594822149 | etot = 10253.5362747919
704  ekin = 10024.454931818 |  erot = 0 | epot = 229.081359745584 | etot = 10253.5362915636
705  ekin = 10023.8293270874 |  erot = 0 | epot = 229.706981104102 | etot = 10253.5363081915
706  ekin = 10023.213717758 |  erot = 0 | epot = 230.322606908583 | etot = 10253.5363246666
707  ekin = 10022.6083073205 |  erot = 0 | epot = 230.928033659326 | etot = 10253.5363409798
708  ekin = 10022.0132972654 |  erot = 0 | epot = 231.523059856754 | etot = 10253.5363571222
709  ekin = 10021.4288869722 |  erot = 0 | epot = 232.107486112496 | etot = 10253.5363730847
710  ekin = 10020.8552735984 |  erot = 0 | epot = 232.681115260087 | etot = 10253.5363888585
711  ekin = 10020.2926519695 |  erot = 0 | epot = 233.243752465191 | etot = 10253.5364044347
712  ekin = 10019.7412144692 |  erot = 0 | epot = 233.795205335245 | etot = 10253.5364198045
713  ekin = 10019.2011509306 |  erot = 0 | epot = 234.335284028456 | etot = 10253.536434959
714  ekin = 10018.6726485276 |  erot = 0 | epot = 234.86380136202 | etot = 10253.5364498897
715  ekin = 10018.1558916683 |  erot = 0 | epot = 235.380572919497 | etot = 10253.5364645878
716  ekin = 10017.6510618876 |  erot = 0 | epot = 235.885417157228 | etot = 10253.5364790448
717  ekin = 10017.1583377427 |  erot = 0 | epot = 236.378155509712 | etot = 10253.5364932524
718  ekin = 10016.6778947083 |  erot = 0 | epot = 236.858612493838 | etot = 10253.5365072022
719  ekin = 10016.209905074 |  erot = 0 | epot = 237.326615811882 | etot = 10253.5365208859
720  ekin = 10015.7545378422 |  erot = 0 | epot = 237.781996453182 | etot = 10253.5365342954
721  ekin = 10015.3119586284 |  erot = 0 | epot = 238.224588794376 | etot = 10253.5365474228
722  ekin = 10014.882329562 |  erot = 0 | epot = 238.654230698137 | etot = 10253.5365602601
723  ekin = 10014.4658091894 |  erot = 0 | epot = 239.070763610295 | etot = 10253.5365727997
724  ekin = 10014.0625523787 |  erot = 0 | epot = 239.474032655258 | etot = 10253.536585034
725  ekin = 10013.6727102259 |  erot = 0 | epot = 239.863886729642 | etot = 10253.5365969555
726  ekin = 10013.296429963 |  erot = 0 | epot = 240.240178594034 | etot = 10253.5366085571
727  ekin = 10012.9338548687 |  erot = 0 | epot = 240.602764962768 | etot = 10253.5366198315
728  ekin = 10012.5851241802 |  erot = 0 | epot = 240.951506591676 | etot = 10253.5366307719
729  ekin = 10012.2503730078 |  erot = 0 | epot = 241.286268363671 | etot = 10253.5366413714
730  ekin = 10011.9297322516 |  erot = 0 | epot = 241.606919372139 | etot = 10253.5366516237
731  ekin = 10011.6233285202 |  erot = 0 | epot = 241.913333002007 | etot = 10253.5366615222
732  ekin = 10011.3312840525 |  erot = 0 | epot = 242.205387008442 | etot = 10253.5366710609
733  ekin = 10011.0537166406 |  erot = 0 | epot = 242.48296359309 | etot = 10253.5366802337
734  ekin = 10010.7907395572 |  erot = 0 | epot = 242.745949477778 | etot = 10253.536689035
735  ekin = 10010.5424614835 |  erot = 0 | epot = 242.994235975608 | etot = 10253.5366974591
736  ekin = 10010.3089864414 |  erot = 0 | epot = 243.227719059378 | etot = 10253.5367055008
737  ekin = 10010.0904137277 |  erot = 0 | epot = 243.446299427257 | etot = 10253.5367131549
738  ekin = 10009.8868378511 |  erot = 0 | epot = 243.649882565641 | etot = 10253.5367204167
739  ekin = 10009.6983484724 |  erot = 0 | epot = 243.838378809138 | etot = 10253.5367272815
740  ekin = 10009.5250303474 |  erot = 0 | epot = 244.011703397621 | etot = 10253.536733745
741  ekin = 10009.3669632727 |  erot = 0 | epot = 244.169776530279 | etot = 10253.536739803
742  ekin = 10009.2242220349 |  erot = 0 | epot = 244.312523416626 | etot = 10253.5367454516
743  ekin = 10009.0968763628 |  erot = 0 | epot = 244.439874324404 | etot = 10253.5367506872
744  ekin = 10008.9849908822 |  erot = 0 | epot = 244.551764624343 | etot = 10253.5367555065
745  ekin = 10008.8886250747 |  erot = 0 | epot = 244.648134831721 | etot = 10253.5367599064
746  ekin = 10008.8078332393 |  erot = 0 | epot = 244.728930644685 | etot = 10253.536763884
747  ekin = 10008.7426644574 |  erot = 0 | epot = 244.794102979299 | etot = 10253.5367674367
748  ekin = 10008.6931625611 |  erot = 0 | epot = 244.843608001279 | etot = 10253.5367705624
749  ekin = 10008.6593661045 |  erot = 0 | epot = 244.877407154376 | etot = 10253.5367732588
750  ekin = 10008.641308339 |  erot = 0 | epot = 244.895467185388 | etot = 10253.5367755244
751  ekin = 10008.6390171919 |  erot = 0 | epot = 244.897760165774 | etot = 10253.5367773576
752  ekin = 10008.6525152474 |  erot = 0 | epot = 244.884263509837 | etot = 10253.5367787573
753  ekin = 10008.681819733 |  erot = 0 | epot = 244.85495998947 | etot = 10253.5367797224
754  ekin = 10008.7269425071 |  erot = 0 | epot = 244.809837745445 | etot = 10253.5367802525
755  ekin = 10008.7878900519 |  erot = 0 | epot = 244.748890295229 | etot = 10253.5367803471
756  ekin = 10008.8646634689 |  erot = 0 | epot = 244.672116537325 | etot = 10253.5367800062
757  ekin = 10008.9572584778 |  erot = 0 | epot = 244.579520752129 | etot = 10253.5367792299
758  ekin = 10009.0656654196 |  erot = 0 | epot = 244.471112599312 | etot = 10253.5367780189
759  ekin = 10009.1898692621 |  erot = 0 | epot = 244.346907111706 | etot = 10253.5367763738
760  ekin = 10009.32984961 |  erot = 0 | epot = 244.206924685736 | etot = 10253.5367742957
761  ekin = 10009.4855807176 |  erot = 0 | epot = 244.051191068373 | etot = 10253.5367717859
762  ekin = 10009.6570315055 |  erot = 0 | epot = 243.879737340643 | etot = 10253.5367688461
763  ekin = 10009.8441655805 |  erot = 0 | epot = 243.692599897702 | etot = 10253.5367654782
764  ekin = 10010.0469412587 |  erot = 0 | epot = 243.489820425499 | etot = 10253.5367616842
765  ekin = 10010.2653115927 |  erot = 0 | epot = 243.271445874051 | etot = 10253.5367574667
766  ekin = 10010.499224401 |  erot = 0 | epot = 243.037528427354 | etot = 10253.5367528283
767  ekin = 10010.7486223021 |  erot = 0 | epot = 242.788125469966 | etot = 10253.5367477721
768  ekin = 10011.0134427508 |  erot = 0 | epot = 242.5232995503 | etot = 10253.5367423011
769  ekin = 10011.2936180784 |  erot = 0 | epot = 242.243118340646 | etot = 10253.536736419
770  ekin = 10011.5890755355 |  erot = 0 | epot = 241.947654593996 | etot = 10253.5367301295
771  ekin = 10011.8997373389 |  erot = 0 | epot = 241.636986097672 | etot = 10253.5367234366
772  ekin = 10012.2255207207 |  erot = 0 | epot = 241.311195623856 | etot = 10253.5367163445
773  ekin = 10012.5663379808 |  erot = 0 | epot = 240.970370877016 | etot = 10253.5367088578
774  ekin = 10012.9220965428 |  erot = 0 | epot = 240.614604438344 | etot = 10253.5367009811
775  ekin = 10013.2926990123 |  erot = 0 | epot = 240.243993707198 | etot = 10253.5366927195
776  ekin = 10013.6780432384 |  erot = 0 | epot = 239.858640839658 | etot = 10253.536684078
777  ekin = 10014.0780223781 |  erot = 0 | epot = 239.458652684232 | etot = 10253.5366750623
778  ekin = 10014.4925249631 |  erot = 0 | epot = 239.044140714783 | etot = 10253.5366656779
779  ekin = 10014.9214349699 |  erot = 0 | epot = 238.615220960745 | etot = 10253.5366559306
780  ekin = 10015.3646318919 |  erot = 0 | epot = 238.172013934698 | etot = 10253.5366458266
781  ekin = 10015.8219908147 |  erot = 0 | epot = 237.714644557367 | etot = 10253.5366353721
782  ekin = 10016.2933824934 |  erot = 0 | epot = 237.24324208013 | etot = 10253.5366245735
783  ekin = 10016.7786734325 |  erot = 0 | epot = 236.757940005115 | etot = 10253.5366134376
784  ekin = 10017.2777259682 |  erot = 0 | epot = 236.258876002936 | etot = 10253.5366019712
785  ekin = 10017.790398353 |  erot = 0 | epot = 235.74619182818 | etot = 10253.5365901812
786  ekin = 10018.3165448421 |  erot = 0 | epot = 235.220033232727 | etot = 10253.5365780749
787  ekin = 10018.8560157826 |  erot = 0 | epot = 234.68054987695 | etot = 10253.5365656596
788  ekin = 10019.4086577039 |  erot = 0 | epot = 234.127895238927 | etot = 10253.5365529428
789  ekin = 10019.9743134105 |  erot = 0 | epot = 233.562226521726 | etot = 10253.5365399322
790  ekin = 10020.5528220767 |  erot = 0 | epot = 232.983704558847 | etot = 10253.5365266355
791  ekin = 10021.1440193428 |  erot = 0 | epot = 232.392493717938 | etot = 10253.5365130608
792  ekin = 10021.7477374131 |  erot = 0 | epot = 231.788761802839 | etot = 10253.5364992159
793  ekin = 10022.3638051552 |  erot = 0 | epot = 231.172679954076 | etot = 10253.5364851092
794  ekin = 10022.9920482011 |  erot = 0 | epot = 230.54442254789 | etot = 10253.5364707489
795  ekin = 10023.6322890496 |  erot = 0 | epot = 229.904167093871 | etot = 10253.5364561434
796  ekin = 10024.2843471699 |  erot = 0 | epot = 229.252094131336 | etot = 10253.5364413012
797  ekin = 10024.9480391063 |  erot = 0 | epot = 228.588387124499 | etot = 10253.5364262308
798  ekin = 10025.6231785844 |  erot = 0 | epot = 227.913232356557 | etot = 10253.536410941
799  ekin = 10026.3095766176 |  erot = 0 | epot = 227.226818822782 | etot = 10253.5363954404
800  ekin = 10027.0070416151 |  erot = 0 | epot = 226.529338122703 | etot = 10253.5363797378
801  ekin = 10027.7153794906 |  erot = 0 | epot = 225.820984351485 | etot = 10253.5363638421
802  ekin = 10028.4343937716 |  erot = 0 | epot = 225.101953990595 | etot = 10253.5363477622
803  ekin = 10029.1638857092 |  erot = 0 | epot = 224.372445797854 | etot = 10253.5363315071
804  ekin = 10029.9036543887 |  erot = 0 | epot = 223.632660696962 | etot = 10253.5363150857
805  ekin = 10030.6534968404 |  erot = 0 | epot = 222.882801666595 | etot = 10253.536298507
806  ekin = 10031.4132081509 |  erot = 0 | epot = 222.123073629172 | etot = 10253.5362817801
807  ekin = 10032.1825815746 |  erot = 0 | epot = 221.353683339375 | etot = 10253.536264914
808  ekin = 10032.9614086453 |  erot = 0 | epot = 220.574839272517 | etot = 10253.5362479178
809  ekin = 10033.7494792876 |  erot = 0 | epot = 219.786751512861 | etot = 10253.5362308005
810  ekin = 10034.5465819291 |  erot = 0 | epot = 218.989631641962 | etot = 10253.5362135711
811  ekin = 10035.3525036116 |  erot = 0 | epot = 218.183692627128 | etot = 10253.5361962387
812  ekin = 10036.1670301022 |  erot = 0 | epot = 217.369148710103 | etot = 10253.5361788123
813  ekin = 10036.9899460048 |  erot = 0 | epot = 216.546215296027 | etot = 10253.5361613008
814  ekin = 10037.8210348704 |  erot = 0 | epot = 215.715108842798 | etot = 10253.5361437132
815  ekin = 10038.6600793075 |  erot = 0 | epot = 214.876046750876 | etot = 10253.5361260584
816  ekin = 10039.5068610915 |  erot = 0 | epot = 214.029247253658 | etot = 10253.5361083452
817  ekin = 10040.3611612739 |  erot = 0 | epot = 213.17492930846 | etot = 10253.5360905823
818  ekin = 10041.2227602904 |  erot = 0 | epot = 212.313312488227 | etot = 10253.5360727786
819  ekin = 10042.0914380686 |  erot = 0 | epot = 211.444616874008 | etot = 10253.5360549426
820  ekin = 10042.9669741346 |  erot = 0 | epot = 210.569062948312 | etot = 10253.5360370829
821  ekin = 10043.8491477187 |  erot = 0 | epot = 209.686871489382 | etot = 10253.536019208
822  ekin = 10044.7377378599 |  erot = 0 | epot = 208.798263466484 | etot = 10253.5360013264
823  ekin = 10045.6325235101 |  erot = 0 | epot = 207.903459936274 | etot = 10253.5359834463
824  ekin = 10046.5332836357 |  erot = 0 | epot = 207.002681940304 | etot = 10253.535965576
825  ekin = 10047.4397973198 |  erot = 0 | epot = 206.09615040374 | etot = 10253.5359477235
826  ekin = 10048.3518438616 |  erot = 0 | epot = 205.18408603536 | etot = 10253.535929897
827  ekin = 10049.2692028753 |  erot = 0 | epot = 204.266709228876 | etot = 10253.5359121042
828  ekin = 10050.1916543873 |  erot = 0 | epot = 203.344239965658 | etot = 10253.5358943529
829  ekin = 10051.118978932 |  erot = 0 | epot = 202.416897718911 | etot = 10253.5358766509
830  ekin = 10052.0509576463 |  erot = 0 | epot = 201.484901359354 | etot = 10253.5358590056
831  ekin = 10052.987372362 |  erot = 0 | epot = 200.54846906246 | etot = 10253.5358414245
832  ekin = 10053.9280056975 |  erot = 0 | epot = 199.607818217301 | etot = 10253.5358239148
833  ekin = 10054.8726411465 |  erot = 0 | epot = 198.663165337055 | etot = 10253.5358064836
834  ekin = 10055.8210631667 |  erot = 0 | epot = 197.714725971217 | etot = 10253.5357891379
835  ekin = 10056.7730572651 |  erot = 0 | epot = 196.762714619541 | etot = 10253.5357718847
836  ekin = 10057.7284100827 |  erot = 0 | epot = 195.807344647785 | etot = 10253.5357547305
837  ekin = 10058.6869094766 |  erot = 0 | epot = 194.848828205271 | etot = 10253.5357376819
838  ekin = 10059.648344601 |  erot = 0 | epot = 193.887376144303 | etot = 10253.5357207454
839  ekin = 10060.6125059856 |  erot = 0 | epot = 192.923197941482 | etot = 10253.5357039271
840  ekin = 10061.5791856122 |  erot = 0 | epot = 191.956501620945 | etot = 10253.5356872331
841  ekin = 10062.5481769898 |  erot = 0 | epot = 190.987493679559 | etot = 10253.5356706694
842  ekin = 10063.5192752276 |  erot = 0 | epot = 190.016379014085 | etot = 10253.5356542417
843  ekin = 10064.4922771053 |  erot = 0 | epot = 189.043360850358 | etot = 10253.5356379556
844  ekin = 10065.4669811421 |  erot = 0 | epot = 188.068640674484 | etot = 10253.5356218166
845  ekin = 10066.4431876638 |  erot = 0 | epot = 187.092418166084 | etot = 10253.5356058299
846  ekin = 10067.420698867 |  erot = 0 | epot = 186.114891133599 | etot = 10253.5355900006
847  ekin = 10068.3993188819 |  erot = 0 | epot = 185.136255451673 | etot = 10253.5355743336
848  ekin = 10069.378853833 |  erot = 0 | epot = 184.156705000623 | etot = 10253.5355588336
849  ekin = 10070.3591118974 |  erot = 0 | epot = 183.176431608009 | etot = 10253.5355435054
850  ekin = 10071.3399051924 |  erot = 0 | epot = 182.195624201898 | etot = 10253.5355293943
851  ekin = 10072.3210504406 |  erot = 0 | epot = 181.214463990517 | etot = 10253.5355144311
852  ekin = 10073.3023647955 |  erot = 0 | epot = 180.233134856891 | etot = 10253.5354996524
853  ekin = 10074.2836652829 |  erot = 0 | epot = 179.251819779091 | etot = 10253.535485062
854  ekin = 10075.2647712428 |  erot = 0 | epot = 178.270699420908 | etot = 10253.5354706637
855  ekin = 10076.245504375 |  erot = 0 | epot = 177.289952086118 | etot = 10253.5354564611
856  ekin = 10077.2256887827 |  erot = 0 | epot = 176.309753674861 | etot = 10253.5354424575
857  ekin = 10078.205151014 |  erot = 0 | epot = 175.33027764214 | etot = 10253.5354286562
858  ekin = 10079.1837201017 |  erot = 0 | epot = 174.3516949584 | etot = 10253.5354150601
859  ekin = 10080.1612276 |  erot = 0 | epot = 173.374174072221 | etot = 10253.5354016722
860  ekin = 10081.13750762 |  erot = 0 | epot = 172.397880875077 | etot = 10253.5353884951
861  ekin = 10082.1123968633 |  erot = 0 | epot = 171.422978668169 | etot = 10253.5353755315
862  ekin = 10083.0857346523 |  erot = 0 | epot = 170.44962813131 | etot = 10253.5353627836
863  ekin = 10084.0573629599 |  erot = 0 | epot = 169.477987293847 | etot = 10253.5353502537
864  ekin = 10085.0271264362 |  erot = 0 | epot = 168.508211507606 | etot = 10253.5353379438
865  ekin = 10085.9948724341 |  erot = 0 | epot = 167.540453421832 | etot = 10253.5353258559
866  ekin = 10086.9604510315 |  erot = 0 | epot = 166.574862960115 | etot = 10253.5353139916
867  ekin = 10087.9237150533 |  erot = 0 | epot = 165.611587299272 | etot = 10253.5353023525
868  ekin = 10088.8845200899 |  erot = 0 | epot = 164.650770850166 | etot = 10253.5352909401
869  ekin = 10089.8427245151 |  erot = 0 | epot = 163.692555240438 | etot = 10253.5352797556
870  ekin = 10090.7981895009 |  erot = 0 | epot = 162.737079299116 | etot = 10253.5352688
871  ekin = 10091.7507790313 |  erot = 0 | epot = 161.784479043099 | etot = 10253.5352580744
872  ekin = 10092.7003599141 |  erot = 0 | epot = 160.83488766546 | etot = 10253.5352475796
873  ekin = 10093.6468017907 |  erot = 0 | epot = 159.888435525553 | etot = 10253.5352373162
874  ekin = 10094.5899771439 |  erot = 0 | epot = 158.945250140904 | etot = 10253.5352272848
875  ekin = 10095.529761305 |  erot = 0 | epot = 158.005456180827 | etot = 10253.5352174858
876  ekin = 10096.4660324576 |  erot = 0 | epot = 157.069175461768 | etot = 10253.5352079194
877  ekin = 10097.3986716414 |  erot = 0 | epot = 156.136526944323 | etot = 10253.5351985857
878  ekin = 10098.3275627528 |  erot = 0 | epot = 155.207626731896 | etot = 10253.5351894847
879  ekin = 10099.2525925453 |  erot = 0 | epot = 154.282588070972 | etot = 10253.5351806163
880  ekin = 10100.1736506272 |  erot = 0 | epot = 153.361521352978 | etot = 10253.5351719802
881  ekin = 10101.0906294583 |  erot = 0 | epot = 152.444534117673 | etot = 10253.535163576
882  ekin = 10102.0034243451 |  erot = 0 | epot = 151.531731058056 | etot = 10253.5351554032
883  ekin = 10102.9119334344 |  erot = 0 | epot = 150.62321402674 | etot = 10253.5351474611
884  ekin = 10103.8160577054 |  erot = 0 | epot = 149.719082043766 | etot = 10253.5351397491
885  ekin = 10104.7157009605 |  erot = 0 | epot = 148.819431305815 | etot = 10253.5351322663
886  ekin = 10105.6107698149 |  erot = 0 | epot = 147.924355196779 | etot = 10253.5351250117
887  ekin = 10106.5011736846 |  erot = 0 | epot = 147.033944299662 | etot = 10253.5351179842
888  ekin = 10107.3868247729 |  erot = 0 | epot = 146.148286409765 | etot = 10253.5351111827
889  ekin = 10108.2676380568 |  erot = 0 | epot = 145.267466549118 | etot = 10253.5351046059
890  ekin = 10109.1435312703 |  erot = 0 | epot = 144.391566982135 | etot = 10253.5350982524
891  ekin = 10110.0144248884 |  erot = 0 | epot = 143.520667232421 | etot = 10253.5350921209
892  ekin = 10110.8802421089 |  erot = 0 | epot = 142.654844100743 | etot = 10253.5350862096
893  ekin = 10111.740908833 |  erot = 0 | epot = 141.794171684073 | etot = 10253.5350805171
894  ekin = 10112.5963536458 |  erot = 0 | epot = 140.938721395707 | etot = 10253.5350750415
895  ekin = 10113.4465077947 |  erot = 0 | epot = 140.088561986397 | etot = 10253.5350697811
896  ekin = 10114.2913051676 |  erot = 0 | epot = 139.243759566472 | etot = 10253.5350647341
897  ekin = 10115.1306822695 |  erot = 0 | epot = 138.4043776289 | etot = 10253.5350598984
898  ekin = 10115.9645781987 |  erot = 0 | epot = 137.570477073264 | etot = 10253.535055272
899  ekin = 10116.7929346223 |  erot = 0 | epot = 136.742116230605 | etot = 10253.5350508529
900  ekin = 10117.6156957498 |  erot = 0 | epot = 135.919350889098 | etot = 10253.5350466389
901  ekin = 10118.4328083072 |  erot = 0 | epot = 135.10223432053 | etot = 10253.5350426277
902  ekin = 10119.2442215096 |  erot = 0 | epot = 134.290817307531 | etot = 10253.5350388172
903  ekin = 10120.0498870334 |  erot = 0 | epot = 133.485148171539 | etot = 10253.5350352049
904  ekin = 10120.8497589871 |  erot = 0 | epot = 132.685272801443 | etot = 10253.5350317885
905  ekin = 10121.6437938827 |  erot = 0 | epot = 131.891234682884 | etot = 10253.5350285655
906  ekin = 10122.4319506054 |  erot = 0 | epot = 131.103074928172 | etot = 10253.5350255335
907  ekin = 10123.2141903832 |  erot = 0 | epot = 130.320832306789 | etot = 10253.53502269
908  ekin = 10123.9904767558 |  erot = 0 | epot = 129.544543276435 | etot = 10253.5350200323
909  ekin = 10124.7607755432 |  erot = 0 | epot = 128.77424201459 | etot = 10253.5350175578
910  ekin = 10125.5250548133 |  erot = 0 | epot = 128.009960450562 | etot = 10253.5350152639
911  ekin = 10126.2832848499 |  erot = 0 | epot = 127.251728297977 | etot = 10253.5350131479
912  ekin = 10127.0354381195 |  erot = 0 | epot = 126.499573087687 | etot = 10253.5350112071
913  ekin = 10127.7814892377 |  erot = 0 | epot = 125.753520201067 | etot = 10253.5350094388
914  ekin = 10128.5214149365 |  erot = 0 | epot = 125.013592903659 | etot = 10253.5350078401
915  ekin = 10129.2551940292 |  erot = 0 | epot = 124.27981237914 | etot = 10253.5350064084
916  ekin = 10129.9828073771 |  erot = 0 | epot = 123.552197763586 | etot = 10253.5350051406
917  ekin = 10130.7042378542 |  erot = 0 | epot = 122.830766179989 | etot = 10253.5350040342
918  ekin = 10131.419470313 |  erot = 0 | epot = 122.115532773026 | etot = 10253.535003086
919  ekin = 10132.1284915494 |  erot = 0 | epot = 121.406510744011 | etot = 10253.5350022934
920  ekin = 10132.8312902674 |  erot = 0 | epot = 120.703711386046 | etot = 10253.5350016534
921  ekin = 10133.5278570438 |  erot = 0 | epot = 120.007144119307 | etot = 10253.5350011631
922  ekin = 10134.2181842932 |  erot = 0 | epot = 119.316816526465 | etot = 10253.5350008197
923  ekin = 10134.902266232 |  erot = 0 | epot = 118.632734388202 | etot = 10253.5350006202
924  ekin = 10135.5800988429 |  erot = 0 | epot = 117.9549017188 | etot = 10253.5350005617
925  ekin = 10136.2516798395 |  erot = 0 | epot = 117.283320801779 | etot = 10253.5350006413
926  ekin = 10136.9170086305 |  erot = 0 | epot = 116.617992225566 | etot = 10253.535000856
927  ekin = 10137.5760862839 |  erot = 0 | epot = 115.958914919159 | etot = 10253.5350012031
928  ekin = 10138.2289154917 |  erot = 0 | epot = 115.306086187773 | etot = 10253.5350016795
929  ekin = 10138.8755005339 |  erot = 0 | epot = 114.65950174845 | etot = 10253.5350022823
930  ekin = 10139.5158472432 |  erot = 0 | epot = 114.019155765596 | etot = 10253.5350030088
931  ekin = 10140.1499629694 |  erot = 0 | epot = 113.385040886443 | etot = 10253.5350038558
932  ekin = 10140.7778565443 |  erot = 0 | epot = 112.757148276402 | etot = 10253.5350048207
933  ekin = 10141.3995382462 |  erot = 0 | epot = 112.135467654294 | etot = 10253.5350059005
934  ekin = 10142.0150197649 |  erot = 0 | epot = 111.519987327445 | etot = 10253.5350070923
935  ekin = 10142.6243141668 |  erot = 0 | epot = 110.910694226614 | etot = 10253.5350083934
936  ekin = 10143.2274358601 |  erot = 0 | epot = 110.30757394075 | etot = 10253.5350098008
937  ekin = 10143.8244005603 |  erot = 0 | epot = 109.710610751553 | etot = 10253.5350113119
938  ekin = 10144.4152252558 |  erot = 0 | epot = 109.119787667826 | etot = 10253.5350129237
939  ekin = 10144.9999281739 |  erot = 0 | epot = 108.535086459608 | etot = 10253.5350146335
940  ekin = 10145.5785287466 |  erot = 0 | epot = 107.956487692058 | etot = 10253.5350164386
941  ekin = 10146.1510475772 |  erot = 0 | epot = 107.383970759091 | etot = 10253.5350183362
942  ekin = 10146.717506407 |  erot = 0 | epot = 106.817513916752 | etot = 10253.5350203237
943  ekin = 10147.277928082 |  erot = 0 | epot = 106.257094316299 | etot = 10253.5350223983
944  ekin = 10147.8323365204 |  erot = 0 | epot = 105.702688037003 | etot = 10253.5350245574
945  ekin = 10148.3807566797 |  erot = 0 | epot = 105.154270118637 | etot = 10253.5350267984
946  ekin = 10148.9232145249 |  erot = 0 | epot = 104.61181459366 | etot = 10253.5350291185
947  ekin = 10149.4597369963 |  erot = 0 | epot = 104.075294519062 | etot = 10253.5350315154
948  ekin = 10149.9903519785 |  erot = 0 | epot = 103.544682007884 | etot = 10253.5350339864
949  ekin = 10150.5150882685 |  erot = 0 | epot = 103.019948260384 | etot = 10253.5350365289
950  ekin = 10151.0339755457 |  erot = 0 | epot = 102.501063594861 | etot = 10253.5350391406
951  ekin = 10151.5470443408 |  erot = 0 | epot = 101.987997478099 | etot = 10253.5350418189
952  ekin = 10152.0543260059 |  erot = 0 | epot = 101.480718555457 | etot = 10253.5350445613
953  ekin = 10152.5558526851 |  erot = 0 | epot = 100.979194680569 | etot = 10253.5350473656
954  ekin = 10153.0516572847 |  erot = 0 | epot = 100.483392944663 | etot = 10253.5350502293
955  ekin = 10153.5417734447 |  erot = 0 | epot = 99.9932797054952 | etot = 10253.5350531502
956  ekin = 10154.0262355099 |  erot = 0 | epot = 99.5088206158725 | etot = 10253.5350561258
957  ekin = 10154.5050785021 |  erot = 0 | epot = 99.0299806517855 | etot = 10253.5350591539
958  ekin = 10154.9783380922 |  erot = 0 | epot = 98.556724140126 | etot = 10253.5350622323
959  ekin = 10155.4460505728 |  erot = 0 | epot = 98.0890147859942 | etot = 10253.5350653588
960  ekin = 10155.9082528316 |  erot = 0 | epot = 97.6268156995914 | etot = 10253.5350685312
961  ekin = 10156.3649823247 |  erot = 0 | epot = 97.1700894226864 | etot = 10253.5350717474
962  ekin = 10156.8162770505 |  erot = 0 | epot = 96.7187979546649 | etot = 10253.5350750052
963  ekin = 10157.2621755245 |  erot = 0 | epot = 96.2729027781482 | etot = 10253.5350783027
964  ekin = 10157.7027167535 |  erot = 0 | epot = 95.8323648841845 | etot = 10253.5350816377
965  ekin = 10158.1379402114 |  erot = 0 | epot = 95.3971447970082 | etot = 10253.5350850084
966  ekin = 10158.5678858143 |  erot = 0 | epot = 94.9672025983637 | etot = 10253.5350884127
967  ekin = 10158.9925938973 |  erot = 0 | epot = 94.5424979514026 | etot = 10253.5350918487
968  ekin = 10159.4121051904 |  erot = 0 | epot = 94.1229901241349 | etot = 10253.5350953145
969  ekin = 10159.8264607958 |  erot = 0 | epot = 93.7086380124519 | etot = 10253.5350988083
970  ekin = 10160.2357021655 |  erot = 0 | epot = 93.2994001627092 | etot = 10253.5351023283
971  ekin = 10160.6398710787 |  erot = 0 | epot = 92.895234793873 | etot = 10253.5351058726
972  ekin = 10161.0390096204 |  erot = 0 | epot = 92.4960998192298 | etot = 10253.5351094396
973  ekin = 10161.4331601598 |  erot = 0 | epot = 92.1019528676615 | etot = 10253.5351130275
974  ekin = 10161.8223653302 |  erot = 0 | epot = 91.7127513044837 | etot = 10253.5351166347
975  ekin = 10162.2066680076 |  erot = 0 | epot = 91.3284522518492 | etot = 10253.5351202595
976  ekin = 10162.5861112916 |  erot = 0 | epot = 90.9490126087217 | etot = 10253.5351239003
977  ekin = 10162.9607384851 |  erot = 0 | epot = 90.5743890704144 | etot = 10253.5351275555
978  ekin = 10163.330593076 |  erot = 0 | epot = 90.2045381477013 | etot = 10253.5351312237
979  ekin = 10163.6957187179 |  erot = 0 | epot = 89.8394161855002 | etot = 10253.5351349034
980  ekin = 10164.0561592118 |  erot = 0 | epot = 89.4789793811311 | etot = 10253.5351385929
981  ekin = 10164.4119584889 |  erot = 0 | epot = 89.1231838021521 | etot = 10253.5351422911
982  ekin = 10164.7631605925 |  erot = 0 | epot = 88.7719854037728 | etot = 10253.5351459963
983  ekin = 10165.1098096615 |  erot = 0 | epot = 88.4253400458545 | etot = 10253.5351497074
984  ekin = 10165.4519499134 |  erot = 0 | epot = 88.0832035094924 | etot = 10253.5351534229
985  ekin = 10165.7896256283 |  erot = 0 | epot = 87.7455315131901 | etot = 10253.5351571415
986  ekin = 10166.1228811335 |  erot = 0 | epot = 87.4122797286236 | etot = 10253.5351608621
987  ekin = 10166.4517607874 |  erot = 0 | epot = 87.0834037960054 | etot = 10253.5351645834
988  ekin = 10166.7763089651 |  erot = 0 | epot = 86.7588593390432 | etot = 10253.5351683041
989  ekin = 10167.0965700437 |  erot = 0 | epot = 86.4386019795069 | etot = 10253.5351720232
990  ekin = 10167.412588388 |  erot = 0 | epot = 86.1225873514004 | etot = 10253.5351757394
991  ekin = 10167.7244083371 |  erot = 0 | epot = 85.8107711147469 | etot = 10253.5351794518
992  ekin = 10168.0320741902 |  erot = 0 | epot = 85.5031089689891 | etot = 10253.5351831592
993  ekin = 10168.3356301946 |  erot = 0 | epot = 85.19955666601 | etot = 10253.5351868606
994  ekin = 10168.6351205322 |  erot = 0 | epot = 84.9000700227793 | etot = 10253.535190555
995  ekin = 10168.9305893078 |  erot = 0 | epot = 84.6046049336283 | etot = 10253.5351942414
996  ekin = 10169.2220805367 |  erot = 0 | epot = 84.3131173821576 | etot = 10253.5351979189
997  ekin = 10169.5096381337 |  erot = 0 | epot = 84.0255634527872 | etot = 10253.5352015865
998  ekin = 10169.7933059014 |  erot = 0 | epot = 83.7418993419466 | etot = 10253.5352052433
999  ekin = 10170.0731275197 |  erot = 0 | epot = 83.4620813689152 | etot = 10253.5352088886
1000  ekin = 10170.3491465352 |  erot = 0 | epot = 83.1860659863151 | etot = 10253.5352125215
      1000   753.3592       8.3186066      0              1025.3535      0.11603246   
Loop time of 0.118812 on 1 procs for 1000 steps with 10 atoms

Performance: 727.200 tau/day, 8416.670 timesteps/s, 84.167 katom-step/s
97.9% CPU use with 1 MPI tasks x 1 OpenMP threads

MPI task timing breakdown:
Section |  min time  |  avg time  |  max time  |%varavg| %total
---------------------------------------------------------------
Pair    | 0.046153   | 0.046153   | 0.046153   |   0.0 | 38.85
Neigh   | 0          | 0          | 0          |   0.0 |  0.00
Comm    | 0.0088442  | 0.0088442  | 0.0088442  |   0.0 |  7.44
Output  | 0.018874   | 0.018874   | 0.018874   |   0.0 | 15.89
Modify  | 0.025852   | 0.025852   | 0.025852   |   0.0 | 21.76
Other   |            | 0.01909    |            |       | 16.07

Nlocal:             10 ave          10 max          10 min
Histogram: 1 0 0 0 0 0 0 0 0 0
Nghost:              0 ave           0 max           0 min
Histogram: 1 0 0 0 0 0 0 0 0 0
Neighs:             45 ave          45 max          45 min
Histogram: 1 0 0 0 0 0 0 0 0 0

Total # of neighbors = 45
Ave neighs/atom = 4.5
Neighbor list builds = 0
Dangerous builds = 0
Total wall time: 0:00:00
