LAMMPS (29 Aug 2024 - Development - patch_17Apr2024-2021-gdcee028bd8)
KOKKOS mode with Kokkos version 4.3.1 is enabled (../kokkos.cpp:72)
Reading data file ...
  orthogonal box = (-20 -20 -20) to (20 20 20)
  1 by 1 by 1 MPI processor grid
  reading atoms ...
  10 atoms
  reading velocities ...
  10 velocities
  10 ellipsoids
  read_data CPU = 0.009 seconds
10 atoms in group all

CITE-CITE-CITE-CITE-CITE-CITE-CITE-CITE-CITE-CITE-CITE-CITE-CITE

Your simulation uses code contributions which should be cited:
- Type Label Framework: https://doi.org/10.1021/acs.jpcb.3c08419
The log file lists these citations in BibTeX format.

CITE-CITE-CITE-CITE-CITE-CITE-CITE-CITE-CITE-CITE-CITE-CITE-CITE

Generated 0 of 6 mixed pair_coeff terms from geometric mixing rule
Neighbor list info ...
  update: every = 1 steps, delay = 0 steps, check = yes
  max neighbors/atom: 2000, page size: 100000
  master list distance cutoff = 2.7118792
  ghost atom cutoff = 2.7118792
  binsize = 1.3559396, bins = 30 30 30
  1 neighbor lists, perpetual/occasional/extra = 1 0 0
  (1) pair oxdna/excv/kk, perpetual
      attributes: half, newton on, kokkos_device
      pair build: half/bin/newton/kk/device
      stencil: half/bin/3d
      bin: kk/device
Setting up Verlet run ...
  Unit style    : lj
  Current step  : 0
  Time step     : 1e-06
0  ekin = 44.3371698969355 |  erot = 0.0975195665025792 | epot = 0 | etot = 44.434689463438
Per MPI rank memory allocation (min/avg/max) = 5.174 | 5.174 | 5.174 Mbytes
   Step          Temp          E_pair         E_mol          TotEng         Press     
         0   3.2842348      0              0              4.433717       0.0015781328 
1000  ekin = 44.2673190841795 |  erot = 0.10148889970147 | epot = 0 | etot = 44.3688079838809
2000  ekin = 44.1966374089896 |  erot = 0.106103173068194 | epot = 0 | etot = 44.3027405820578
3000  ekin = 44.1251356179054 |  erot = 0.111380443866759 | epot = 0 | etot = 44.2365160617722
4000  ekin = 44.0528248845231 |  erot = 0.117339125925713 | epot = 0 | etot = 44.1701640104488
5000  ekin = 43.9797171539645 |  erot = 0.123997955247977 | epot = 0 | etot = 44.1037151092125
6000  ekin = 43.9058359046538 |  erot = 0.131374952714126 | epot = 0 | etot = 44.0372108573679
7000  ekin = 43.8311976999209 |  erot = 0.13948879179041 | epot = 0 | etot = 43.9706864917113
8000  ekin = 43.7558134722081 |  erot = 0.148358986363405 | epot = 0 | etot = 43.9041724585715
9000  ekin = 43.6796946354508 |  erot = 0.158005424343354 | epot = 0 | etot = 43.8377000597941
10000  ekin = 43.60285308517 |  erot = 0.168448361553014 | epot = 0 | etot = 43.771301446723
11000  ekin = 43.5253011982072 |  erot = 0.179708415145786 | epot = 0 | etot = 43.705009613353
12000  ekin = 43.4470518320947 |  erot = 0.191806556547141 | epot = 0 | etot = 43.6388583886418
13000  ekin = 43.3681183240509 |  erot = 0.204764103913862 | epot = 0 | etot = 43.5728824279647
14000  ekin = 43.2885144895959 |  erot = 0.218602714106112 | epot = 0 | etot = 43.507117203702
15000  ekin = 43.2082546207755 |  erot = 0.233344374167871 | epot = 0 | etot = 43.4415989949433
16000  ekin = 43.1273534839881 |  erot = 0.249011392311863 | epot = 0 | etot = 43.3763648762999
17000  ekin = 43.0458263174084 |  erot = 0.265626388405702 | epot = 0 | etot = 43.3114527058141
18000  ekin = 42.9636888279985 |  erot = 0.283212283956576 | epot = 0 | etot = 43.246901111955
19000  ekin = 42.8809571881011 |  erot = 0.301792291592496 | epot = 0 | etot = 43.1827494796936
20000  ekin = 42.7976480316096 |  erot = 0.321389904038779 | epot = 0 | etot = 43.1190379356484
21000  ekin = 42.7137784497074 |  erot = 0.342028882589194 | epot = 0 | etot = 43.0558073322966
22000  ekin = 42.6293659861735 |  erot = 0.363733245071892 | epot = 0 | etot = 42.9930992312454
23000  ekin = 42.5444286322473 |  erot = 0.386527253311072 | epot = 0 | etot = 42.9309558855584
24000  ekin = 42.4589848210506 |  erot = 0.410435400086097 | epot = 0 | etot = 42.8694202211367
25000  ekin = 42.3730534215619 |  erot = 0.435482395590617 | epot = 0 | etot = 42.8085358171525
26000  ekin = 42.2866537321394 |  erot = 0.461693153395091 | epot = 0 | etot = 42.7483468855345
27000  ekin = 42.199805473592 |  erot = 0.489092775917006 | epot = 0 | etot = 42.688898249509
28000  ekin = 42.1125287817949 |  erot = 0.517706539403967 | epot = 0 | etot = 42.6302353211988
29000  ekin = 42.0248441998481 |  erot = 0.54755987843575 | epot = 0 | etot = 42.5724040782839
30000  ekin = 41.9367726697799 |  erot = 0.578678369952391 | epot = 0 | etot = 42.5154510397323
31000  ekin = 41.8483355237914 |  erot = 0.611087716816259 | epot = 0 | etot = 42.4594232406076
32000  ekin = 41.7595544750468 |  erot = 0.644813730917168 | epot = 0 | etot = 42.404368205964
33000  ekin = 41.6704516080084 |  erot = 0.679882315830415 | epot = 0 | etot = 42.3503339238388
34000  ekin = 41.5810493683192 |  erot = 0.716319449038785 | epot = 0 | etot = 42.297368817358
35000  ekin = 41.4913705522369 |  erot = 0.754151163730469 | epot = 0 | etot = 42.2455217159674
36000  ekin = 41.4014382956217 |  erot = 0.793403530185921 | epot = 0 | etot = 42.1948418258077
37000  ekin = 41.3112760624847 |  erot = 0.834102636767687 | epot = 0 | etot = 42.1453786992524
38000  ekin = 41.2209076330979 |  erot = 0.87627457052828 | epot = 0 | etot = 42.0971822036261
39000  ekin = 41.1303570916786 |  erot = 0.919945397452196 | epot = 0 | etot = 42.0503024891308
40000  ekin = 41.0396488136498 |  erot = 0.965141142349189 | epot = 0 | etot = 42.004789955999
41000  ekin = 40.9488074524855 |  erot = 1.011887768417 | epot = 0 | etot = 41.9606952209025
42000  ekin = 40.8578579261519 |  erot = 1.06021115649266 | epot = 0 | etot = 41.9180690826446
43000  ekin = 40.7668254031527 |  erot = 1.11013708401259 | epot = 0 | etot = 41.8769624871653
44000  ekin = 40.6757352881873 |  erot = 1.16169120370266 | epot = 0 | etot = 41.83742649189
45000  ekin = 40.5846132074365 |  erot = 1.21489902202033 | epot = 0 | etot = 41.7995122294569
46000  ekin = 40.4934849934854 |  erot = 1.26978587737191 | epot = 0 | etot = 41.7632708708574
47000  ekin = 40.4023766698966 |  erot = 1.32637691812922 | epot = 0 | etot = 41.7287535880258
48000  ekin = 40.311314435449 |  erot = 1.38469708047022 | epot = 0 | etot = 41.6960115159192
49000  ekin = 40.2203246480562 |  erot = 1.44477106606967 | epot = 0 | etot = 41.6650957141259
50000  ekin = 40.1294338083781 |  erot = 1.50662331966644 | epot = 0 | etot = 41.6360571280445
51000  ekin = 40.0386685431458 |  erot = 1.57027800653484 | epot = 0 | etot = 41.6089465496807
52000  ekin = 39.9480555882128 |  erot = 1.63575898988813 | epot = 0 | etot = 41.5838145781009
53000  ekin = 39.857621771353 |  erot = 1.70308980824338 | epot = 0 | etot = 41.5607115795964
54000  ekin = 39.7673939948239 |  erot = 1.77229365277696 | epot = 0 | etot = 41.5396876476009
55000  ekin = 39.6773992177117 |  erot = 1.84339334470115 | epot = 0 | etot = 41.5207925624129
56000  ekin = 39.5876644380824 |  erot = 1.91641131269251 | epot = 0 | etot = 41.5040757507749
57000  ekin = 39.4982308655549 |  erot = 1.99136696628884 | epot = 0 | etot = 41.4895978318437
58000  ekin = 39.4092792760887 |  erot = 2.06825186790112 | epot = 0 | etot = 41.4775311439898
59000  ekin = 39.3208755024572 |  erot = 2.14707458308269 | epot = 0 | etot = 41.4679500855399
60000  ekin = 39.2330424955789 |  erot = 2.22785060835377 | epot = 0 | etot = 41.4608931039327
61000  ekin = 39.1458030948203 |  erot = 2.31059488577787 | epot = 0 | etot = 41.4563979805982
62000  ekin = 39.0591800116728 |  erot = 2.39532178478306 | epot = 0 | etot = 41.4545017964558
63000  ekin = 38.9731958134193 |  erot = 2.48204508430026 | epot = 0 | etot = 41.4552408977196
64000  ekin = 38.8878729068199 |  erot = 2.57077795524911 | epot = 0 | etot = 41.458650862069
65000  ekin = 38.8032335218315 |  erot = 2.66153294340225 | epot = 0 | etot = 41.4647664652338
66000  ekin = 38.7192996953918 |  erot = 2.75432195265823 | epot = 0 | etot = 41.47362164805
67000  ekin = 38.6360932552865 |  erot = 2.84915622875367 | epot = 0 | etot = 41.4852494840401
68000  ekin = 38.5536358041248 |  erot = 2.9460463434443 | epot = 0 | etot = 41.4996821475691
69000  ekin = 38.4719487034474 |  erot = 3.04500217918464 | epot = 0 | etot = 41.5169508826321
70000  ekin = 38.391053057989 |  erot = 3.14603291433535 | epot = 0 | etot = 41.5370859723243
71000  ekin = 38.3109697001206 |  erot = 3.24914700892669 | epot = 0 | etot = 41.5601167090473
72000  ekin = 38.2317191744947 |  erot = 3.35435219100631 | epot = 0 | etot = 41.586071365501
73000  ekin = 38.1533217229166 |  erot = 3.46165544359842 | epot = 0 | etot = 41.614977166515
74000  ekin = 38.075797269464 |  erot = 3.5710629923006 | epot = 0 | etot = 41.6468602617646
75000  ekin = 37.9991654058805 |  erot = 3.68258029354438 | epot = 0 | etot = 41.6817456994249
76000  ekin = 37.9235142010762 |  erot = 3.79621677476619 | epot = 0 | etot = 41.7197309758424
77000  ekin = 37.8489813096632 |  erot = 3.91198381967817 | epot = 0 | etot = 41.7609651293413
78000  ekin = 37.7755866489666 |  erot = 4.02988335156211 | epot = 0 | etot = 41.8054700005287
79000  ekin = 37.7033475715028 |  erot = 4.14991627671585 | epot = 0 | etot = 41.8532638482186
80000  ekin = 37.6322809651907 |  erot = 4.27208262647717 | epot = 0 | etot = 41.9043635916678
81000  ekin = 37.5624032406497 |  erot = 4.39638154973245 | epot = 0 | etot = 41.9587847903822
82000  ekin = 37.4937303189434 |  erot = 4.52281130626996 | epot = 0 | etot = 42.0165416252134
83000  ekin = 37.4262776197885 |  erot = 4.6513692609952 | epot = 0 | etot = 42.0776468807837
84000  ekin = 37.3600600502471 |  erot = 4.78205187902402 | epot = 0 | etot = 42.1421119292712
85000  ekin = 37.2950919939214 |  erot = 4.91485472166791 | epot = 0 | etot = 42.2099467155894
86000  ekin = 37.2313873006676 |  erot = 5.04977244332395 | epot = 0 | etot = 42.2811597439915
87000  ekin = 37.1689592768436 |  erot = 5.18679878928087 | epot = 0 | etot = 42.3557580661245
88000  ekin = 37.1078206761092 |  erot = 5.32592659445053 | epot = 0 | etot = 42.4337472705597
89000  ekin = 37.0479836907894 |  erot = 5.46714778303275 | epot = 0 | etot = 42.5151314738221
90000  ekin = 36.9894599438162 |  erot = 5.61045336911959 | epot = 0 | etot = 42.5999133129358
91000  ekin = 36.932260481261 |  erot = 5.75583345824378 | epot = 0 | etot = 42.6880939395048
92000  ekin = 36.8763957654681 |  erot = 5.90327724987328 | epot = 0 | etot = 42.7796730153414
93000  ekin = 36.8218756687992 |  erot = 6.05277304085407 | epot = 0 | etot = 42.8746487096533
94000  ekin = 36.7687094679989 |  erot = 6.20430822979896 | epot = 0 | etot = 42.9730176977978
95000  ekin = 36.7169058391879 |  erot = 6.35786932242056 | epot = 0 | etot = 43.0747751616084
96000  ekin = 36.6664728534902 |  erot = 6.51344193780406 | epot = 0 | etot = 43.1799147912943
97000  ekin = 36.6174179733013 |  erot = 6.67101081561355 | epot = 0 | etot = 43.2884287889149
98000  ekin = 36.5697480491994 |  erot = 6.83055982422365 | epot = 0 | etot = 43.4003078734231
99000  ekin = 36.5234693175039 |  erot = 6.99207196976702 | epot = 0 | etot = 43.5155412872709
100000  ekin = 36.4785873984824 |  erot = 7.1555294060863 | epot = 0 | etot = 43.6341168045687
    100000   2.7021176      0              0              3.6478587      0.0016440818 
Loop time of 20.478 on 1 procs for 100000 steps with 10 atoms

Performance: 421.916 tau/day, 4883.289 timesteps/s, 48.833 katom-step/s
99.9% CPU use with 1 MPI tasks x 1 OpenMP threads

MPI task timing breakdown:
Section |  min time  |  avg time  |  max time  |%varavg| %total
---------------------------------------------------------------
Pair    | 9.5563     | 9.5563     | 9.5563     |   0.0 | 46.67
Neigh   | 0          | 0          | 0          |   0.0 |  0.00
Comm    | 1.7331     | 1.7331     | 1.7331     |   0.0 |  8.46
Output  | 0.0078767  | 0.0078767  | 0.0078767  |   0.0 |  0.04
Modify  | 6.628      | 6.628      | 6.628      |   0.0 | 32.37
Other   |            | 2.553      |            |       | 12.47

Nlocal:             10 ave          10 max          10 min
Histogram: 1 0 0 0 0 0 0 0 0 0
Nghost:              0 ave           0 max           0 min
Histogram: 1 0 0 0 0 0 0 0 0 0
Neighs:             45 ave          45 max          45 min
Histogram: 1 0 0 0 0 0 0 0 0 0

Total # of neighbors = 45
Ave neighs/atom = 4.5
Neighbor list builds = 0
Dangerous builds = 0
System init for write_data ...
Generated 0 of 6 mixed pair_coeff terms from geometric mixing rule
Total wall time: 0:00:20
