LAMMPS (29 Aug 2024 - Development - patch_29Aug2024-411-g17afcc0062-modified)
variable number	equal 2
variable ofreq	equal 1000
variable efreq	equal 1000
variable T      equal 0.1

units lj

dimension 3

newton on

boundary  p p p

atom_style hybrid bond ellipsoid
WARNING: Atom style hybrid defines both, per-type and per-atom masses; both must be set, but only per-atom masses will be used (../atom_vec_hybrid.cpp:132)
atom_modify sort 0 1.0

# Pair interactions require lists of neighbours to be calculated
neighbor 2.0 bin
neigh_modify every 1 delay 0 check yes

read_data data.duplex2
Reading data file ...
  orthogonal box = (-20 -20 -20) to (20 20 20)
  1 by 1 by 2 MPI processor grid
  reading atoms ...
  16 atoms
  reading velocities ...
  16 velocities
  scanning bonds ...
  1 = max bonds/atom
  16 ellipsoids
  orthogonal box = (-20 -20 -20) to (20 20 20)
  1 by 1 by 2 MPI processor grid
  reading bonds ...
  13 bonds
Finding 1-2 1-3 1-4 neighbors ...
  special bond factors lj:    0        0        0       
  special bond factors coul:  0        0        0       
     2 = max # of 1-2 neighbors
     2 = max # of 1-3 neighbors
     4 = max # of 1-4 neighbors
     6 = max # of special neighbors
  special bonds CPU = 0.000 seconds
  read_data CPU = 0.002 seconds

set atom * mass 3.1575
Setting atom values ...
  16 settings made for mass

group all type 1 4
16 atoms in group all

# oxDNA bond interactions - FENE backbone
bond_style oxdna/fene
bond_coeff * 2.0 0.75 1.07525
special_bonds lj 0 1 1
Finding 1-2 1-3 1-4 neighbors ...
  special bond factors lj:    0        1        1       
  special bond factors coul:  0        0        0       
     2 = max # of 1-2 neighbors
     2 = max # of 1-3 neighbors
     4 = max # of 1-4 neighbors
     6 = max # of special neighbors
  special bonds CPU = 0.000 seconds

# oxDNA pair interactions
pair_style oxdna/excv
pair_coeff * * 2.0 0.7 0.675 2.0 0.515 0.5 2.0 0.33 0.32

# NVE ensemble
fix 1 all nve/asphere
#fix 2 all langevin ${T} ${T} 2.5 457145 angmom 10

timestep 1e-5

#comm_style tiled
fix 3 all balance 1000 1.03 shift xyz 10 1.03
comm_modify cutoff 3.8

compute quat all property/atom quatw quati quatj quatk

compute erot all erotate/asphere
compute ekin all ke
compute epot all pe
variable erot equal c_erot
variable ekin equal c_ekin
variable epot equal c_epot
variable etot equal c_erot+c_ekin+c_epot
fix 5 all print ${efreq} "$(step)  ekin = ${ekin} |  erot = ${erot} | epot = ${epot} | etot = ${etot}" screen yes
fix 5 all print 1000 "$(step)  ekin = ${ekin} |  erot = ${erot} | epot = ${epot} | etot = ${etot}" screen yes

dump out all custom ${ofreq} out.${number}.lammpstrj id mol type x y z ix iy iz vx vy vz c_quat[1] c_quat[2] c_quat[3] c_quat[4] angmomx angmomy angmomz
dump out all custom 1000 out.${number}.lammpstrj id mol type x y z ix iy iz vx vy vz c_quat[1] c_quat[2] c_quat[3] c_quat[4] angmomx angmomy angmomz
dump out all custom 1000 out.2.lammpstrj id mol type x y z ix iy iz vx vy vz c_quat[1] c_quat[2] c_quat[3] c_quat[4] angmomx angmomy angmomz
dump_modify out sort id
dump_modify out format line "%d %d %d  %22.15le %22.15le %22.15le  %d %d %d  %22.15le %22.15le %22.15le  %22.15le %22.15le %22.15le %22.15le  %22.15le %22.15le %22.15le"

run 1000000

CITE-CITE-CITE-CITE-CITE-CITE-CITE-CITE-CITE-CITE-CITE-CITE-CITE

Your simulation uses code contributions which should be cited:

- Type Label Framework: https://doi.org/10.1021/acs.jpcb.3c08419

@Article{Gissinger24,
 author = {Jacob R. Gissinger, Ilia Nikiforov, Yaser Afshar, Brendon Waters, Moon-ki Choi, Daniel S. Karls, Alexander Stukowski, Wonpil Im, Hendrik Heinz, Axel Kohlmeyer, and Ellad B. Tadmor},
 title = {Type Label Framework for Bonded Force Fields in LAMMPS},
 journal = {J. Phys. Chem. B},
 year =    2024,
 volume =  128,
 number =  13,
 pages =   {3282–-3297}
}

CITE-CITE-CITE-CITE-CITE-CITE-CITE-CITE-CITE-CITE-CITE-CITE-CITE

Generated 0 of 6 mixed pair_coeff terms from geometric mixing rule
Neighbor list info ...
  update: every = 1 steps, delay = 0 steps, check = yes
  max neighbors/atom: 2000, page size: 100000
  master list distance cutoff = 2.7118792
  ghost atom cutoff = 3.8
  binsize = 1.3559396, bins = 30 30 30
  1 neighbor lists, perpetual/occasional/extra = 1 0 0
  (1) pair oxdna/excv, perpetual
      attributes: half, newton on
      pair build: half/bin/newton
      stencil: half/bin/3d
      bin: standard
0  ekin = 2.70475393009871 |  erot = 2.80172072918779 | epot = 2.64334594915631 | etot = 8.14982060844281
Per MPI rank memory allocation (min/avg/max) = 6.082 | 6.087 | 6.092 Mbytes
   Step          Temp          E_pair         E_mol          TotEng         Press          Volume    
         0   0.12021129     0              0.16520912     0.33425624     7.8166607e-05  64000        
1000  ekin = 2.71020216990159 |  erot = 2.80552859588947 | epot = 2.63408984265145 | etot = 8.14982060844251
2000  ekin = 2.71589866322519 |  erot = 2.80906878306547 | epot = 2.62485316215181 | etot = 8.14982060844246
3000  ekin = 2.72184530135153 |  erot = 2.81233807764454 | epot = 2.61563722944666 | etot = 8.14982060844272
4000  ekin = 2.72804580430092 |  erot = 2.81533627527075 | epot = 2.6064385288716 | etot = 8.14982060844327
5000  ekin = 2.73450569687491 |  erot = 2.81806615888243 | epot = 2.59724875268678 | etot = 8.14982060844412
6000  ekin = 2.74123228350657 |  erot = 2.82053347239629 | epot = 2.58805485254245 | etot = 8.1498206084453
7000  ekin = 2.7482346215122 |  erot = 2.82274688937597 | epot = 2.57883909755854 | etot = 8.14982060844672
8000  ekin = 2.75552349214287 |  erot = 2.82471797626449 | epot = 2.56957914004111 | etot = 8.14982060844846
9000  ekin = 2.7631113686149 |  erot = 2.82646114944125 | epot = 2.56024809039432 | etot = 8.14982060845046
10000  ekin = 2.77101238005425 |  erot = 2.82799362502699 | epot = 2.55081460337151 | etot = 8.14982060845275
11000  ekin = 2.77924227001816 |  erot = 2.82933536000409 | epot = 2.54124297843306 | etot = 8.14982060845531
12000  ekin = 2.78781834796361 |  erot = 2.83050898285132 | epot = 2.53149327764317 | etot = 8.1498206084581
13000  ekin = 2.79675943172218 |  erot = 2.83153971151958 | epot = 2.5215214652194 | etot = 8.14982060846117
14000  ekin = 2.80608577872601 |  erot = 2.83245525621288 | epot = 2.51127957352556 | etot = 8.14982060846446
15000  ekin = 2.8158190034276 |  erot = 2.83328570410674 | epot = 2.50071590093363 | etot = 8.14982060846797
16000  ekin = 2.82598197808927 |  erot = 2.83406338285915 | epot = 2.48977524752323 | etot = 8.14982060847166
17000  ekin = 2.83659871391411 |  erot = 2.83482269958062 | epot = 2.47839919498086 | etot = 8.14982060847559
18000  ekin = 2.84769421938369 |  erot = 2.83559995186408 | epot = 2.46652643723191 | etot = 8.14982060847968
19000  ekin = 2.85929433269586 |  erot = 2.83643310757603 | epot = 2.45409316821201 | etot = 8.1498206084839
20000  ekin = 2.87142552539709 |  erot = 2.83736155041706 | epot = 2.44103353267407 | etot = 8.14982060848822
21000  ekin = 2.88411467471966 |  erot = 2.83842578881399 | epot = 2.42728014495897 | etot = 8.14982060849262
22000  ekin = 2.89738880279402 |  erot = 2.83966712653955 | epot = 2.41276467916347 | etot = 8.14982060849704
23000  ekin = 2.91127478183854 |  erot = 2.84112729459075 | epot = 2.39741853207214 | etot = 8.14982060850144
24000  ekin = 2.92579900563749 |  erot = 2.84284804529396 | epot = 2.38117355757428 | etot = 8.14982060850573
25000  ekin = 2.94098702909245 |  erot = 2.84487071132449 | epot = 2.36396286809294 | etot = 8.14982060850988
26000  ekin = 2.95686317933291 |  erot = 2.84723573427635 | epot = 2.3457216949046 | etot = 8.14982060851386
27000  ekin = 2.97345014372995 |  erot = 2.84998216951251 | epot = 2.32638829527509 | etot = 8.14982060851755
28000  ekin = 2.99076854207514 |  erot = 2.85314717615047 | epot = 2.30590489029535 | etot = 8.14982060852095
29000  ekin = 3.00883649203945 |  erot = 2.85676550304718 | epot = 2.28421861343733 | etot = 8.14982060852396
30000  ekin = 3.02766917866931 |  erot = 2.86086898337852 | epot = 2.26128244647868 | etot = 8.14982060852652
31000  ekin = 3.04727843995465 |  erot = 2.86548605169026 | epot = 2.23705611688367 | etot = 8.14982060852858
32000  ekin = 3.06767238126969 |  erot = 2.87064129797184 | epot = 2.21150692928859 | etot = 8.14982060853012
33000  ekin = 3.08885503161726 |  erot = 2.87635507324129 | epot = 2.18461050367253 | etot = 8.14982060853108
34000  ekin = 3.11082605401766 |  erot = 2.88264316024922 | epot = 2.15635139426454 | etot = 8.14982060853142
35000  ekin = 3.13358052104626 |  erot = 2.88951652119659 | epot = 2.12672356628822 | etot = 8.14982060853107
36000  ekin = 3.15710876447495 |  erot = 2.89698113187135 | epot = 2.09573071218374 | etot = 8.14982060853004
37000  ekin = 3.18139630531633 |  erot = 2.90503790847379 | epot = 2.06338639473824 | etot = 8.14982060852836
38000  ekin = 3.20429165566721 |  erot = 2.91441724664403 | epot = 2.03111169353206 | etot = 8.1498205958433
39000  ekin = 3.16226713558344 |  erot = 2.96951249589297 | epot = 2.01804097668545 | etot = 8.14982060816185
40000  ekin = 3.15668193005657 |  erot = 3.03487118292575 | epot = 1.9582674910707 | etot = 8.14982060405303
41000  ekin = 3.18267783292185 |  erot = 3.04650846394393 | epot = 1.92063430718328 | etot = 8.14982060404906
42000  ekin = 3.20931762876393 |  erot = 3.05862481128377 | epot = 1.88187816399695 | etot = 8.14982060404465
43000  ekin = 3.23656117395299 |  erot = 3.07119483439972 | epot = 1.84206459568709 | etot = 8.14982060403981
44000  ekin = 3.2643651464711 |  erot = 3.08418995818686 | epot = 1.80126549937665 | etot = 8.14982060403461
45000  ekin = 3.29268347975671 |  erot = 3.09757890396607 | epot = 1.75955822030634 | etot = 8.14982060402913
46000  ekin = 3.32146781015886 |  erot = 3.11132818262923 | epot = 1.71702461123538 | etot = 8.14982060402347
47000  ekin = 3.35066792553793 |  erot = 3.12540258606992 | epot = 1.6737500924098 | etot = 8.14982060401764
48000  ekin = 3.38023220381295 |  erot = 3.13976566457464 | epot = 1.62982273562412 | etot = 8.14982060401171
49000  ekin = 3.41010803189425 |  erot = 3.15438017978877 | epot = 1.58533239232272 | etot = 8.14982060400573
50000  ekin = 3.44024219730495 |  erot = 3.16920852502939 | epot = 1.54036988166544 | etot = 8.14982060399977
51000  ekin = 3.47058124674375 |  erot = 3.18421310693601 | epot = 1.49502625031411 | etot = 8.14982060399387
52000  ekin = 3.50107180774858 |  erot = 3.19935668459307 | epot = 1.44939211164641 | etot = 8.14982060398807
53000  ekin = 3.53166087138984 |  erot = 3.21460266422159 | epot = 1.40355706837097 | etot = 8.1498206039824
54000  ekin = 3.53700597906121 |  erot = 3.19261243292454 | epot = 1.42020219411231 | etot = 8.14982060609807
55000  ekin = 3.53375323296756 |  erot = 3.14390663944273 | epot = 1.47216074504654 | etot = 8.14982061745683
56000  ekin = 3.59052588058661 |  erot = 3.15448696949045 | epot = 1.40480776469459 | etot = 8.14982061477165
57000  ekin = 3.68262970845636 |  erot = 3.21246655970009 | epot = 1.25472433419247 | etot = 8.14982060234892
58000  ekin = 3.72887648512422 |  erot = 3.2396238416988 | epot = 1.18132027908555 | etot = 8.14982060590857
59000  ekin = 3.75821084596412 |  erot = 3.25322406600986 | epot = 1.13838569393001 | etot = 8.149820605904
60000  ekin = 3.78744476357242 |  erot = 3.26670767573934 | epot = 1.09566816658791 | etot = 8.14982060589966
61000  ekin = 3.81653333546273 |  erot = 3.28004903288642 | epot = 1.0532382375464 | etot = 8.14982060589556
62000  ekin = 3.84543310293926 |  erot = 3.29322428882546 | epot = 1.01116321412695 | etot = 8.14982060589167
63000  ekin = 3.87410204308434 |  erot = 3.30621135619038 | epot = 0.969507206613269 | etot = 8.14982060588799
64000  ekin = 3.90249954836456 |  erot = 3.31898986768472 | epot = 0.928331189835216 | etot = 8.1498206058845
65000  ekin = 3.93058639649976 |  erot = 3.3315411247447 | epot = 0.887693084636774 | etot = 8.14982060588123
66000  ekin = 3.95832471292411 |  erot = 3.34384803862304 | epot = 0.847647854330969 | etot = 8.14982060587812
67000  ekin = 3.98567792785832 |  erot = 3.35589506610928 | epot = 0.808247611907628 | etot = 8.14982060587523
68000  ekin = 4.01261072971459 |  erot = 3.36766814176889 | epot = 0.769541734389029 | etot = 8.14982060587251
69000  ekin = 4.03908901628191 |  erot = 3.3791546082775 | epot = 0.731576981310502 | etot = 8.14982060586991
70000  ekin = 4.06507984488954 |  erot = 3.39034314614914 | epot = 0.694397614828815 | etot = 8.1498206058675
71000  ekin = 4.09055138252518 |  erot = 3.40122370391319 | epot = 0.658045519426857 | etot = 8.14982060586523
72000  ekin = 4.11547285669132 |  erot = 3.41178742958242 | epot = 0.622560319589351 | etot = 8.14982060586309
73000  ekin = 4.1398145076179 |  erot = 3.42202660407193 | epot = 0.587979494171225 | etot = 8.14982060586105
74000  ekin = 4.16354754230912 |  erot = 3.4319345770761 | epot = 0.554338486473925 | etot = 8.14982060585915
75000  ekin = 4.18664409078617 |  erot = 3.44150570578298 | epot = 0.521670809288185 | etot = 8.14982060585734
76000  ekin = 4.20907716479279 |  erot = 3.45073529670123 | epot = 0.490008144361613 | etot = 8.14982060585564
77000  ekin = 4.23082061915362 |  erot = 3.45961955079057 | epot = 0.459380435909845 | etot = 8.14982060585404
78000  ekin = 4.25184911591495 |  erot = 3.4681555120197 | epot = 0.429815977917876 | etot = 8.14982060585253
79000  ekin = 4.27213809135059 |  erot = 3.47634101942322 | epot = 0.401341495077292 | etot = 8.1498206058511
80000  ekin = 4.29166372587942 |  erot = 3.48417466268851 | epot = 0.373982217281837 | etot = 8.14982060584977
81000  ekin = 4.31040291691538 |  erot = 3.49165574127288 | epot = 0.347761947660245 | etot = 8.1498206058485
82000  ekin = 4.32833325465105 |  erot = 3.49878422702867 | epot = 0.322703124167563 | etot = 8.14982060584729
83000  ekin = 4.34543300076358 |  erot = 3.50556073029696 | epot = 0.298826874785611 | etot = 8.14982060584616
84000  ekin = 4.36168107002229 |  erot = 3.51198646941858 | epot = 0.276153066404209 | etot = 8.14982060584508
85000  ekin = 4.37705701477324 |  erot = 3.51806324360254 | epot = 0.254700347468291 | etot = 8.14982060584407
86000  ekin = 4.39154101227237 |  erot = 3.52379340908561 | epot = 0.234486184485134 | etot = 8.14982060584312
87000  ekin = 4.40511385483859 |  erot = 3.52917985851224 | epot = 0.21552689249142 | etot = 8.14982060584225
88000  ekin = 4.41775694279773 |  erot = 3.53422600346025 | epot = 0.197837659583426 | etot = 8.14982060584141
89000  ekin = 4.42945228018963 |  erot = 3.53893576003472 | epot = 0.181432565616294 | etot = 8.14982060584064
90000  ekin = 4.4401824732109 |  erot = 3.54331353744877 | epot = 0.166324595180262 | etot = 8.14982060583993
91000  ekin = 4.4499307313672 |  erot = 3.54736422950749 | epot = 0.152525644964584 | etot = 8.14982060583928
92000  ekin = 4.45868087130964 |  erot = 3.55109320890641 | epot = 0.140046525622617 | etot = 8.14982060583867
93000  ekin = 4.46641732332964 |  erot = 3.5545063242526 | epot = 0.128896958255868 | etot = 8.14982060583811
94000  ekin = 4.47312514048703 |  erot = 3.55760989971087 | epot = 0.11908556563973 | etot = 8.14982060583764
95000  ekin = 4.47879001034491 |  erot = 3.56041073717242 | epot = 0.110619858319874 | etot = 8.14982060583721
96000  ekin = 4.4833982692839 |  erot = 3.56291612083712 | epot = 0.103506215715799 | etot = 8.14982060583682
97000  ekin = 4.48693691936596 |  erot = 3.56513382409376 | epot = 0.0977498623767798 | etot = 8.1498206058365
98000  ekin = 4.48939364771608 |  erot = 3.56707211857529 | epot = 0.0933548395448671 | etot = 8.14982060583624
99000  ekin = 4.49075684838638 |  erot = 3.5687397852584 | epot = 0.0903239721912537 | etot = 8.14982060583604
100000  ekin = 4.49101564666368 |  erot = 3.5701461274681 | epot = 0.0886588317041245 | etot = 8.14982060583591
101000  ekin = 4.49015992577702 |  erot = 3.5713009856394 | epot = 0.0883596944194418 | etot = 8.14982060583585
102000  ekin = 4.4881274138513 |  erot = 3.57205976774308 | epot = 0.089633388916348 | etot = 8.14982057051072
103000  ekin = 4.44193617839853 |  erot = 3.41842920074175 | epot = 0.289455213449242 | etot = 8.14982059258953
104000  ekin = 4.44389875460581 |  erot = 3.13575224113876 | epot = 0.570169626318621 | etot = 8.14982062206319
105000  ekin = 4.6493008439209 |  erot = 2.97552155107289 | epot = 0.524998221307328 | etot = 8.14982061630111
106000  ekin = 4.94129756539531 |  erot = 2.9758118377214 | epot = 0.232711181241434 | etot = 8.14982058435815
107000  ekin = 5.03322320920232 |  erot = 2.99139090697525 | epot = 0.125206508498785 | etot = 8.14982062467635
108000  ekin = 5.02316890914431 |  erot = 2.98895632843977 | epot = 0.137695387093494 | etot = 8.14982062467757
109000  ekin = 5.01212830388436 |  erot = 2.98647833254944 | epot = 0.151213988245044 | etot = 8.14982062467885
110000  ekin = 5.00010618755643 |  erot = 2.98397441218065 | epot = 0.165740024943146 | etot = 8.14982062468023
111000  ekin = 4.9871082479969 |  erot = 2.98146273914318 | epot = 0.181249637541626 | etot = 8.14982062468171
112000  ekin = 4.97314109696251 |  erot = 2.97896216338289 | epot = 0.19771736433788 | etot = 8.14982062468327
113000  ekin = 4.95821230139299 |  erot = 2.97649221112245 | epot = 0.215116112169504 | etot = 8.14982062468494
114000  ekin = 4.94233041554211 |  erot = 2.97407308172309 | epot = 0.233417127421497 | etot = 8.14982062468669
115000  ekin = 4.92550501377847 |  erot = 2.9717256430326 | epot = 0.252589967877492 | etot = 8.14982062468856
116000  ekin = 4.90774672383214 |  erot = 2.96947142496666 | epot = 0.272602475891723 | etot = 8.14982062469052
117000  ekin = 4.88906726023732 |  erot = 2.96733261105243 | epot = 0.293420753402827 | etot = 8.14982062469258
118000  ekin = 4.86947945769257 |  erot = 2.96533202764463 | epot = 0.315009139357542 | etot = 8.14982062469474
119000  ekin = 4.84899730403053 |  erot = 2.96349313050636 | epot = 0.337330190160133 | etot = 8.14982062469702
120000  ekin = 4.82763597245783 |  erot = 2.96183998842957 | epot = 0.360344663812 | etot = 8.14982062469939
121000  ekin = 4.80541185269387 |  erot = 2.96039726355363 | epot = 0.384011508454378 | etot = 8.14982062470188
122000  ekin = 4.78234258060416 |  erot = 2.95919018802583 | epot = 0.408287856074452 | etot = 8.14982062470445
123000  ekin = 4.75844706589081 |  erot = 2.95824453663532 | epot = 0.433129022181009 | etot = 8.14982062470715
124000  ekin = 4.73374551737029 |  erot = 2.95758659504218 | epot = 0.458488512297492 | etot = 8.14982062470996
125000  ekin = 4.70825946533658 |  erot = 2.9572431232177 | epot = 0.484318036158601 | etot = 8.14982062471288
126000  ekin = 4.68201178047813 |  erot = 2.95724131371003 | epot = 0.510567530527722 | etot = 8.14982062471589
127000  ekin = 4.65502668878935 |  erot = 2.9576087443534 | epot = 0.537185191576276 | etot = 8.14982062471903
128000  ekin = 4.62732978189388 |  erot = 2.95837332504834 | epot = 0.564117517780045 | etot = 8.14982062472226
129000  ekin = 4.59894802217753 |  erot = 2.95956323825802 | epot = 0.591309364290065 | etot = 8.14982062472562
130000  ekin = 4.56990974211516 |  erot = 2.96120687288975 | epot = 0.618704009724123 | etot = 8.14982062472903
131000  ekin = 4.54024463716954 |  erot = 2.96333275126507 | epot = 0.646243236297942 | etot = 8.14982062473255
132000  ekin = 4.5099837516414 |  erot = 2.96596944892518 | epot = 0.673867424169555 | etot = 8.14982062473614
133000  ekin = 4.47915945686145 |  erot = 2.96914550707241 | epot = 0.701515660805939 | etot = 8.1498206247398
134000  ekin = 4.44780542113628 |  erot = 2.97288933751411 | epot = 0.729125866093129 | etot = 8.14982062474352
135000  ekin = 4.41595657089387 |  erot = 2.97722912005229 | epot = 0.756634933801104 | etot = 8.14982062474727
136000  ekin = 4.38364904252092 |  erot = 2.98219269235154 | epot = 0.783978889878615 | etot = 8.14982062475108
137000  ekin = 4.3509201244439 |  erot = 2.98780743241924 | epot = 0.81109306789175 | etot = 8.14982062475488
138000  ekin = 4.31780818908118 |  erot = 2.99410013394502 | epot = 0.837912301732559 | etot = 8.14982062475876
139000  ekin = 4.28435261438243 |  erot = 3.00109687487079 | epot = 0.864371135509382 | etot = 8.1498206247626
140000  ekin = 4.25059369477648 |  erot = 3.00882287969695 | epot = 0.890404050292986 | etot = 8.14982062476642
141000  ekin = 4.216572541468 |  erot = 3.01730237617327 | epot = 0.915945707128925 | etot = 8.14982062477019
142000  ekin = 4.18233097215614 |  erot = 3.02655844717207 | epot = 0.940931205445748 | etot = 8.14982062477396
143000  ekin = 4.14791139039434 |  erot = 3.03661287869504 | epot = 0.965296355688264 | etot = 8.14982062477764
144000  ekin = 4.11335665496676 |  erot = 3.04748600511867 | epot = 0.988977964695779 | etot = 8.14982062478121
145000  ekin = 4.07870993982196 |  erot = 3.05919655293565 | epot = 1.01191413202706 | etot = 8.14982062478468
146000  ekin = 4.04401458527497 |  erot = 3.07176148439423 | epot = 1.03404455511881 | etot = 8.14982062478801
147000  ekin = 4.00931394136203 |  erot = 3.08519584257256 | epot = 1.05531084085662 | etot = 8.14982062479121
148000  ekin = 3.97465120440356 |  erot = 3.09951259954417 | epot = 1.0756568208465 | etot = 8.14982062479423
149000  ekin = 3.94006924799693 |  erot = 3.11472250939062 | epot = 1.0950288674095 | etot = 8.14982062479704
150000  ekin = 3.905610449816 |  erot = 3.13083396789271 | epot = 1.11337620709091 | etot = 8.14982062479962
151000  ekin = 3.87131651573593 |  erot = 3.14785288077865 | epot = 1.13065122828745 | etot = 8.14982062480203
152000  ekin = 3.8372283029231 |  erot = 3.16578254242221 | epot = 1.14680977945885 | etot = 8.14982062480417
153000  ekin = 3.80175424250313 |  erot = 3.17738738042048 | epot = 1.17067899576972 | etot = 8.14982061869333
154000  ekin = 3.77134772819325 |  erot = 3.16310979691722 | epot = 1.21536310014049 | etot = 8.14982062525096
155000  ekin = 3.77094740964794 |  erot = 3.16840847014938 | epot = 1.21046474150959 | etot = 8.14982062130691
156000  ekin = 3.75914998143565 |  erot = 3.18846439243406 | epot = 1.20220624794427 | etot = 8.14982062181399
157000  ekin = 3.7289929903411 |  erot = 3.20705778360738 | epot = 1.21376984786669 | etot = 8.14982062181516
158000  ekin = 3.69927841208183 |  erot = 3.22648022836236 | epot = 1.22406198137184 | etot = 8.14982062181604
159000  ekin = 3.67003657568788 |  erot = 3.24672230673906 | epot = 1.23306173938963 | etot = 8.14982062181658
160000  ekin = 3.64129584789822 |  erot = 3.26777176708696 | epot = 1.24075300683163 | etot = 8.14982062181681
161000  ekin = 3.61308251371871 |  erot = 3.28961352219951 | epot = 1.24712458589851 | etot = 8.14982062181672
162000  ekin = 3.58542067074061 |  erot = 3.31222966548075 | epot = 1.25217028559495 | etot = 8.14982062181631
163000  ekin = 3.55833213842986 |  erot = 3.33559950748868 | epot = 1.25588897589701 | etot = 8.14982062181556
164000  ekin = 3.53183638339204 |  erot = 3.35969963291515 | epot = 1.25828460550732 | etot = 8.14982062181452
165000  ekin = 3.50595046139201 |  erot = 3.38450397777013 | epot = 1.25936618265095 | etot = 8.14982062181309
166000  ekin = 3.48068897666494 |  erot = 3.40998392624564 | epot = 1.25914771890078 | etot = 8.14982062181135
167000  ekin = 3.45606405880378 |  erot = 3.43610842644984 | epot = 1.25764813655569 | etot = 8.14982062180931
168000  ekin = 3.43208535725305 |  erot = 3.4628441239304 | epot = 1.25489114062357 | etot = 8.14982062180701
169000  ekin = 3.40876005318631 |  erot = 3.49015551165657 | epot = 1.2509050569615 | etot = 8.14982062180438
170000  ekin = 3.38609288830157 |  erot = 3.51800509490614 | epot = 1.2457226385938 | etot = 8.14982062180151
171000  ekin = 3.36408620984056 |  erot = 3.54635356931181 | epot = 1.23938084264601 | etot = 8.14982062179838
172000  ekin = 3.34274003092954 |  erot = 3.57516001016676 | epot = 1.23192058069872 | etot = 8.14982062179502
173000  ekin = 3.32205210515543 |  erot = 3.60438207097225 | epot = 1.22338644566377 | etot = 8.14982062179145
174000  ekin = 3.3020180141353 |  erot = 3.6339761891339 | epot = 1.21382641851852 | etot = 8.14982062178772
175000  ekin = 3.28263126671189 |  erot = 3.66389779667753 | epot = 1.2032915583944 | etot = 8.14982062178382
176000  ekin = 3.26388340831382 |  erot = 3.69410153385914 | epot = 1.19183567960681 | etot = 8.14982062177978
177000  ekin = 3.24576413895822 |  erot = 3.72454146358475 | epot = 1.17951501923263 | etot = 8.1498206217756
178000  ekin = 3.22826143834308 |  erot = 3.7551712846314 | epot = 1.16638789879684 | etot = 8.14982062177132
179000  ekin = 3.21136169647754 |  erot = 3.78594454176632 | epot = 1.15251438352312 | etot = 8.14982062176698
180000  ekin = 3.19504984832591 |  erot = 3.81681483099347 | epot = 1.13795594244317 | etot = 8.14982062176255
181000  ekin = 3.17930951099498 |  erot = 3.84773599830955 | epot = 1.12277511245357 | etot = 8.1498206217581
182000  ekin = 3.16412312206861 |  erot = 3.87866233052053 | epot = 1.10703516916453 | etot = 8.14982062175367
183000  ekin = 3.14947207778702 |  erot = 3.90954873685024 | epot = 1.09079980711202 | etot = 8.14982062174928
184000  ekin = 3.13533686987539 |  erot = 3.94035092025846 | epot = 1.07413283161103 | etot = 8.14982062174487
185000  ekin = 3.12169721994426 |  erot = 3.97102553757423 | epot = 1.05709786422209 | etot = 8.14982062174058
186000  ekin = 3.10853221050906 |  erot = 4.00153034773569 | epot = 1.03975806349163 | etot = 8.14982062173638
187000  ekin = 3.09582041180449 |  erot = 4.03182434760726 | epot = 1.02217586232044 | etot = 8.14982062173219
188000  ekin = 3.08354000369798 |  erot = 4.06186789501627 | epot = 1.00441272301385 | etot = 8.1498206217281
189000  ekin = 3.07166889213296 |  erot = 4.09162281881049 | epot = 0.986528910780703 | etot = 8.14982062172414
190000  ekin = 3.06018481965403 |  erot = 4.12105251588522 | epot = 0.968583286181089 | etot = 8.14982062172034
191000  ekin = 3.04906546968145 |  erot = 4.1501220352613 | epot = 0.950633116773913 | etot = 8.14982062171666
192000  ekin = 3.03828856430892 |  erot = 4.17879814941371 | epot = 0.932733907990532 | etot = 8.14982062171316
193000  ekin = 3.02783195549684 |  erot = 4.20704941315381 | epot = 0.91493925305912 | etot = 8.14982062170976
194000  ekin = 3.01767370962067 |  erot = 4.23484621045749 | epot = 0.89730070162843 | etot = 8.1498206217066
195000  ekin = 3.00779218541237 |  erot = 4.26216078970601 | epot = 0.879867646585134 | etot = 8.14982062170352
196000  ekin = 2.99816610539962 |  erot = 4.28896728786876 | epot = 0.862687228432197 | etot = 8.14982062170058
197000  ekin = 2.98877462100565 |  erot = 4.31524174420625 | epot = 0.845804256485935 | etot = 8.14982062169783
198000  ekin = 2.97959737151972 |  erot = 4.34096210411108 | epot = 0.829261146064463 | etot = 8.14982062169526
199000  ekin = 2.97061453718728 |  erot = 4.36610821373293 | epot = 0.813097870772736 | etot = 8.14982062169295
200000  ekin = 2.96180688669853 |  erot = 4.39066180605417 | epot = 0.797351928938051 | etot = 8.14982062169076
201000  ekin = 2.95315581937719 |  erot = 4.41460647909545 | epot = 0.782058323216121 | etot = 8.14982062168876
202000  ekin = 2.94464340238599 |  erot = 4.43792766693659 | epot = 0.767249552364347 | etot = 8.14982062168693
203000  ekin = 2.93625240327554 |  erot = 4.46061260423906 | epot = 0.752955614170689 | etot = 8.14982062168529
204000  ekin = 2.92796631820653 |  erot = 4.48265028495232 | epot = 0.739204018524956 | etot = 8.14982062168381
205000  ekin = 2.91976939617505 |  erot = 4.50403141587818 | epot = 0.726019809629253 | etot = 8.14982062168249
206000  ekin = 2.91164665956584 |  erot = 4.52474836575647 | epot = 0.713425596359051 | etot = 8.14982062168136
207000  ekin = 2.9035839213508 |  erot = 4.54479511052041 | epot = 0.701441589809194 | etot = 8.14982062168041
208000  ekin = 2.89556779923912 |  erot = 4.56416717535397 | epot = 0.690085647086496 | etot = 8.14982062167959
209000  ekin = 2.88758572707266 |  erot = 4.58286157416383 | epot = 0.679373320442411 | etot = 8.1498206216789
210000  ekin = 2.87962596374594 |  erot = 4.60087674705731 | epot = 0.669317910875145 | etot = 8.1498206216784
211000  ekin = 2.87167759991339 |  erot = 4.61821249639433 | epot = 0.65993052537032 | etot = 8.14982062167804
212000  ekin = 2.86373056273012 |  erot = 4.63486992195556 | epot = 0.651220136992141 | etot = 8.14982062167782
213000  ekin = 2.85577561885407 |  erot = 4.65085135574145 | epot = 0.643193647082255 | etot = 8.14982062167778
214000  ekin = 2.84780437591882 |  erot = 4.66616029688689 | epot = 0.635855948872114 | etot = 8.14982062167782
215000  ekin = 2.83980928266732 |  erot = 4.68080134714404 | epot = 0.629209991866638 | etot = 8.149820621678
216000  ekin = 2.83178362791728 |  erot = 4.69478014735192 | epot = 0.623256846409075 | etot = 8.14982062167828
217000  ekin = 2.82372153850888 |  erot = 4.70810331527482 | epot = 0.61799576789496 | etot = 8.14982062167866
218000  ekin = 2.81561797636597 |  erot = 4.72077838515266 | epot = 0.613424260160546 | etot = 8.14982062167918
219000  ekin = 2.80746873478083 |  erot = 4.73281374926676 | epot = 0.609538137632212 | etot = 8.1498206216798
220000  ekin = 2.79927043401311 |  erot = 4.74421860178093 | epot = 0.606331585886483 | etot = 8.14982062168053
221000  ekin = 2.79102051627216 |  erot = 4.75500288507487 | epot = 0.603797220334322 | etot = 8.14982062168136
222000  ekin = 2.78271724013189 |  erot = 4.76517723874035 | epot = 0.601926142810025 | etot = 8.14982062168226
223000  ekin = 2.77435967440628 |  erot = 4.77475295136522 | epot = 0.600707995911749 | etot = 8.14982062168325
224000  ekin = 2.76594769149319 |  erot = 4.78374191518251 | epot = 0.600131015008599 | etot = 8.1498206216843
225000  ekin = 2.75748196017316 |  erot = 4.79215658361489 | epot = 0.600182077897408 | etot = 8.14982062168546
226000  ekin = 2.74896393782979 |  erot = 4.80000993169778 | epot = 0.600846752159114 | etot = 8.14982062168669
227000  ekin = 2.74039586203774 |  erot = 4.80731541931828 | epot = 0.602109340331971 | etot = 8.14982062168799
228000  ekin = 2.73178074144469 |  erot = 4.81408695716209 | epot = 0.60395292308261 | etot = 8.14982062168939
229000  ekin = 2.7231223458545 |  erot = 4.82033887521758 | epot = 0.606359400618746 | etot = 8.14982062169083
230000  ekin = 2.71442519540011 |  erot = 4.8260858936461 | epot = 0.609309532646139 | etot = 8.14982062169235
231000  ekin = 2.70569454867741 |  erot = 4.83134309578922 | epot = 0.61278297722729 | etot = 8.14982062169392
232000  ekin = 2.69693638969507 |  erot = 4.83612590305078 | epot = 0.616758328949714 | etot = 8.14982062169557
233000  ekin = 2.68815741348083 |  erot = 4.84045005136026 | epot = 0.621213156856159 | etot = 8.14982062169724
234000  ekin = 2.67936501017167 |  erot = 4.84433156889997 | epot = 0.62612404262733 | etot = 8.14982062169897
235000  ekin = 2.67056724740517 |  erot = 4.84778675475723 | epot = 0.631466619538376 | etot = 8.14982062170078
236000  ekin = 2.66177285082122 |  erot = 4.85083215814798 | epot = 0.637215612733428 | etot = 8.14982062170262
237000  ekin = 2.65299118247831 |  erot = 4.8534845578494 | epot = 0.643344881376822 | etot = 8.14982062170453
238000  ekin = 2.64423221698717 |  erot = 4.85576094147586 | epot = 0.649827463243459 | etot = 8.14982062170649
239000  ekin = 2.63550651516679 |  erot = 4.85767848423562 | epot = 0.65663562230609 | etot = 8.14982062170851
240000  ekin = 2.62682519503402 |  erot = 4.85925452681636 | epot = 0.663740899860144 | etot = 8.14982062171053
241000  ekin = 2.61819989994919 |  erot = 4.86050655206343 | epot = 0.671114169699959 | etot = 8.14982062171259
242000  ekin = 2.60964276375559 |  erot = 4.86145216013845 | epot = 0.678725697820646 | etot = 8.14982062171468
243000  ekin = 2.60116637277163 |  erot = 4.86210904187588 | epot = 0.686545207069294 | etot = 8.1498206217168
244000  ekin = 2.59278372452053 |  erot = 4.86249495009127 | epot = 0.694541947107143 | etot = 8.14982062171894
245000  ekin = 2.58450818311385 |  erot = 4.86262766863762 | epot = 0.702684769969648 | etot = 8.14982062172112
246000  ekin = 2.57635343124187 |  erot = 4.86252497905432 | epot = 0.710942211427085 | etot = 8.14982062172328
247000  ekin = 2.56833341876567 |  erot = 4.86220462470674 | epot = 0.71928257825303 | etot = 8.14982062172544
248000  ekin = 2.56046230795272 |  erot = 4.86168427237196 | epot = 0.727674041402911 | etot = 8.14982062172759
249000  ekin = 2.55275441544872 |  erot = 4.86098147128773 | epot = 0.736084734993304 | etot = 8.14982062172975
250000  ekin = 2.54522415113351 |  erot = 4.86011360974535 | epot = 0.744482860852999 | etot = 8.14982062173187
251000  ekin = 2.53788595406645 |  erot = 4.85909786937309 | epot = 0.752836798294425 | etot = 8.14982062173397
252000  ekin = 2.5307542257866 |  erot = 4.85795117732124 | epot = 0.761115218628217 | etot = 8.14982062173605
253000  ekin = 2.52384326129349 |  erot = 4.85669015662549 | epot = 0.769287203819122 | etot = 8.1498206217381
254000  ekin = 2.51716717809404 |  erot = 4.85533107508624 | epot = 0.777322368559773 | etot = 8.14982062174006
255000  ekin = 2.51073984375947 |  erot = 4.85388979305951 | epot = 0.785190984923022 | etot = 8.149820621742
256000  ekin = 2.50457480249018 |  erot = 4.85238171060739 | epot = 0.792864108646321 | etot = 8.14982062174389
257000  ekin = 2.49868520123654 |  erot = 4.85082171450119 | epot = 0.800313706007963 | etot = 8.14982062174569
258000  ekin = 2.49308371596585 |  erot = 4.84922412560788 | epot = 0.807512780173715 | etot = 8.14982062174744
259000  ekin = 2.48778247870107 |  erot = 4.84760264721749 | epot = 0.814435495830524 | etot = 8.14982062174908
260000  ekin = 2.48279300598218 |  erot = 4.84597031488733 | epot = 0.821057300881137 | etot = 8.14982062175065
261000  ekin = 2.47812612941576 |  erot = 4.84433944838437 | epot = 0.827355043951936 | etot = 8.14982062175207
262000  ekin = 2.47379192898207 |  erot = 4.84272160630239 | epot = 0.833307086468971 | etot = 8.14982062175343
263000  ekin = 2.46979966975996 |  erot = 4.84112754391272 | epot = 0.838893408081969 | etot = 8.14982062175465
264000  ekin = 2.46615774270861 |  erot = 4.83956717477975 | epot = 0.844095704267387 | etot = 8.14982062175575
265000  ekin = 2.46287361011181 |  erot = 4.83804953663184 | epot = 0.848897475013062 | etot = 8.14982062175671
266000  ekin = 2.45995375624434 |  erot = 4.83658276192881 | epot = 0.853284103584373 | etot = 8.14982062175753
267000  ekin = 2.45740364376378 |  erot = 4.83517405350811 | epot = 0.857242924486342 | etot = 8.14982062175824
268000  ekin = 2.45522767626333 |  erot = 4.83382966562534 | epot = 0.860763279870155 | etot = 8.14982062175882
269000  ekin = 2.4534291673463 |  erot = 4.83255489063149 | epot = 0.863836563781462 | etot = 8.14982062175925
270000  ekin = 2.45201031649995 |  erot = 4.83135405145274 | epot = 0.866456253806843 | etot = 8.14982062175954
271000  ekin = 2.45097219195867 |  erot = 4.83023049995869 | epot = 0.868617929842336 | etot = 8.1498206217597
272000  ekin = 2.45031472065591 |  erot = 4.8291866212245 | epot = 0.870319279879313 | etot = 8.14982062175972
273000  ekin = 2.4500366852726 |  erot = 4.82822384361406 | epot = 0.871560092872917 | etot = 8.14982062175958
274000  ekin = 2.45013572829925 |  erot = 4.82734265453421 | epot = 0.872342238925845 | etot = 8.14982062175931
275000  ekin = 2.45060836294126 |  erot = 4.82654262163915 | epot = 0.872669637178518 | etot = 8.14982062175893
276000  ekin = 2.45144999061453 |  erot = 4.82582241919755 | epot = 0.872548211946307 | etot = 8.14982062175839
277000  ekin = 2.45265492470242 |  erot = 4.82517985927636 | epot = 0.871985837778952 | etot = 8.14982062175774
278000  ekin = 2.45421642017615 |  erot = 4.82461192734358 | epot = 0.870992274237234 | etot = 8.14982062175697
279000  ekin = 2.45612670862184 |  erot = 4.8241148218491 | epot = 0.869579091285194 | etot = 8.14982062175613
280000  ekin = 2.45837703816673 |  erot = 4.82368399730806 | epot = 0.867759586280349 | etot = 8.14982062175514
281000  ekin = 2.46095771775739 |  erot = 4.82331421038506 | epot = 0.865548693611606 | etot = 8.14982062175406
282000  ekin = 2.4638581652123 |  erot = 4.82299956845976 | epot = 0.8629628880808 | etot = 8.14982062175287
283000  ekin = 2.46706695845151 |  erot = 4.82273358014421 | epot = 0.860020083155878 | etot = 8.14982062175159
284000  ekin = 2.4705718892952 |  erot = 4.82250920722041 | epot = 0.856739525234659 | etot = 8.14982062175027
285000  ekin = 2.47436001922176 |  erot = 4.82231891747032 | epot = 0.85314168505676 | etot = 8.14982062174884
286000  ekin = 2.47841773648264 |  erot = 4.82215473788155 | epot = 0.849248147383163 | etot = 8.14982062174736
287000  ekin = 2.48273081398599 |  erot = 4.8220083077272 | epot = 0.845081500032596 | etot = 8.14982062174579
288000  ekin = 2.4872844673815 |  erot = 4.82187093103948 | epot = 0.84066522332319 | etot = 8.14982062174417
289000  ekin = 2.49206341280652 |  erot = 4.82173362802041 | epot = 0.836023580915609 | etot = 8.14982062174254
290000  ekin = 2.49705192378438 |  erot = 4.82158718496115 | epot = 0.831181512995318 | etot = 8.14982062174085
291000  ekin = 2.50223388680216 |  erot = 4.82142220227183 | epot = 0.826164532665191 | etot = 8.14982062173918
292000  ekin = 2.5075928551337 |  erot = 4.82122914025601 | epot = 0.82099862634774 | etot = 8.14982062173745
293000  ekin = 2.51311210051521 |  erot = 4.82099836229943 | epot = 0.815710158921074 | etot = 8.14982062173572
294000  ekin = 2.51066149541281 |  erot = 4.81167494298224 | epot = 0.827484183212697 | etot = 8.14982062160775
295000  ekin = 2.47217370736827 |  erot = 4.75891946451351 | epot = 0.918727460433059 | etot = 8.14982063231483
296000  ekin = 2.46466431191229 |  erot = 4.72432953635093 | epot = 0.96082678933915 | etot = 8.14982063760237
297000  ekin = 2.52307196520457 |  erot = 4.74628419890729 | epot = 0.880464466049554 | etot = 8.14982063016141
298000  ekin = 2.58603905046947 |  erot = 4.78322804518715 | epot = 0.780553524872442 | etot = 8.14982062052907
299000  ekin = 2.5984604742726 |  erot = 4.79026917367686 | epot = 0.761090989066531 | etot = 8.14982063701599
300000  ekin = 2.60673046916852 |  erot = 4.79446788839748 | epot = 0.748622279447101 | etot = 8.1498206370131
301000  ekin = 2.61503009358972 |  erot = 4.79850216495926 | epot = 0.736288378461253 | etot = 8.14982063701023
302000  ekin = 2.62333144912546 |  erot = 4.80235351132275 | epot = 0.72413567655916 | etot = 8.14982063700737
303000  ekin = 2.63160676750725 |  erot = 4.80600370279087 | epot = 0.712210166706399 | etot = 8.14982063700453
304000  ekin = 2.63982846699219 |  erot = 4.80943482731129 | epot = 0.700557342698226 | etot = 8.14982063700171
305000  ekin = 2.64796920425226 |  erot = 4.81262932596205 | epot = 0.689222106784637 | etot = 8.14982063699895
306000  ekin = 2.65600192181446 |  erot = 4.815570028672 | epot = 0.67824868650979 | etot = 8.14982063699625
307000  ekin = 2.66389989113684 |  erot = 4.81824018527213 | epot = 0.667680560584574 | etot = 8.14982063699354
308000  ekin = 2.67163675144062 |  erot = 4.82062349201495 | epot = 0.657560393535351 | etot = 8.14982063699092
309000  ekin = 2.67918654444987 |  erot = 4.82270411373429 | epot = 0.647929978804187 | etot = 8.14982063698834
310000  ekin = 2.68652374521749 |  erot = 4.82446670185052 | epot = 0.638830189917787 | etot = 8.1498206369858
311000  ekin = 2.69362328923949 |  erot = 4.8258964084535 | epot = 0.630300939290336 | etot = 8.14982063698332
312000  ekin = 2.70046059607956 |  erot = 4.82697889671984 | epot = 0.622381144181482 | etot = 8.14982063698089
313000  ekin = 2.7070115897433 |  erot = 4.82770034794243 | epot = 0.615108699292801 | etot = 8.14982063697853
314000  ekin = 2.71325271605549 |  erot = 4.82804746546765 | epot = 0.608520455453065 | etot = 8.14982063697621
315000  ekin = 2.71916095730655 |  erot = 4.82800747585206 | epot = 0.602652203815354 | etot = 8.14982063697396
316000  ekin = 2.72471384444478 |  erot = 4.82756812756251 | epot = 0.59753866496445 | etot = 8.14982063697174
317000  ekin = 2.72988946710022 |  erot = 4.8267176875569 | epot = 0.593213482312474 | etot = 8.14982063696959
318000  ekin = 2.73466648173428 |  erot = 4.82544493609157 | epot = 0.589709219141631 | etot = 8.14982063696749
319000  ekin = 2.73902411821778 |  erot = 4.82373916011192 | epot = 0.587057358635738 | etot = 8.14982063696544
320000  ekin = 2.74294218514732 |  erot = 4.82159014559078 | epot = 0.585288306225337 | etot = 8.14982063696343
321000  ekin = 2.74640107421892 |  erot = 4.81898816918822 | epot = 0.584431393554349 | etot = 8.14982063696148
322000  ekin = 2.74938176398678 |  erot = 4.81592398961504 | epot = 0.584514883357755 | etot = 8.14982063695958
323000  ekin = 2.75186582334593 |  erot = 4.81238883909157 | epot = 0.585565974520209 | etot = 8.14982063695771
324000  ekin = 2.75383541508974 |  erot = 4.80837441530384 | epot = 0.587610806562313 | etot = 8.14982063695589
325000  ekin = 2.75527329990815 |  erot = 4.80387287427078 | epot = 0.590674462775179 | etot = 8.14982063695411
326000  ekin = 2.75616284121 |  erot = 4.79887682454941 | epot = 0.594780971192952 | etot = 8.14982063695237
327000  ekin = 2.75648801117355 |  erot = 4.79337932322065 | epot = 0.59995330255645 | etot = 8.14982063695065
328000  ekin = 2.75623339845404 |  erot = 4.78737387411616 | epot = 0.606213364378773 | etot = 8.14982063694897
329000  ekin = 2.75538421800643 |  erot = 4.78085442876753 | epot = 0.613581990173396 | etot = 8.14982063694736
330000  ekin = 2.75392632351548 |  erot = 4.77381539058321 | epot = 0.62207892284709 | etot = 8.14982063694578
331000  ekin = 2.75184622296553 |  erot = 4.76625162278652 | epot = 0.631722791192187 | etot = 8.14982063694423
332000  ekin = 2.74913109792847 |  erot = 4.75815846067964 | epot = 0.642531078334605 | etot = 8.14982063694271
333000  ekin = 2.7457688272021 |  erot = 4.7495317288348 | epot = 0.654520080904313 | etot = 8.14982063694122
334000  ekin = 2.74174801549222 |  erot = 4.7403677638548 | epot = 0.667704857592752 | etot = 8.14982063693977
335000  ekin = 2.73705802790147 |  erot = 4.73066344339059 | epot = 0.682099165646318 | etot = 8.14982063693838
336000  ekin = 2.73168903106692 |  erot = 4.72041622215468 | epot = 0.697715383715443 | etot = 8.14982063693704
337000  ekin = 2.72563204187666 |  erot = 4.70962417572468 | epot = 0.714564419334397 | etot = 8.14982063693573
338000  ekin = 2.71887898479404 |  erot = 4.69828605299205 | epot = 0.732655599148409 | etot = 8.1498206369345
339000  ekin = 2.71142275892626 |  erot = 4.68640133817526 | epot = 0.751996539831809 | etot = 8.14982063693333
340000  ekin = 2.70325731609193 |  erot = 4.67397032338484 | epot = 0.772592997455467 | etot = 8.14982063693223
341000  ekin = 2.69437775126828 |  erot = 4.66099419279624 | epot = 0.794448692866692 | etot = 8.14982063693121
342000  ekin = 2.68478040693151 |  erot = 4.64747511955488 | epot = 0.817565110443921 | etot = 8.14982063693031
343000  ekin = 2.6744629929403 |  erot = 4.63341637660055 | epot = 0.841941267388704 | etot = 8.14982063692955
344000  ekin = 2.66342472374732 |  erot = 4.61882246265308 | epot = 0.867573450528487 | etot = 8.14982063692889
345000  ekin = 2.65166647485158 |  erot = 4.6036992446378 | epot = 0.894454917438977 | etot = 8.14982063692836
346000  ekin = 2.63919096051378 |  erot = 4.58805411784245 | epot = 0.922575558571799 | etot = 8.14982063692803
347000  ekin = 2.62600293483711 |  erot = 4.57189618507202 | epot = 0.951921517018746 | etot = 8.14982063692788
348000  ekin = 2.6121094183476 |  erot = 4.55523645599155 | epot = 0.982474762588843 | etot = 8.14982063692799
349000  ekin = 2.59751995216929 |  erot = 4.53808806769707 | epot = 1.01421261706202 | etot = 8.14982063692837
350000  ekin = 2.58224688175062 |  erot = 4.52046652731026 | epot = 1.04710722786816 | etot = 8.14982063692904
351000  ekin = 2.56630567182146 |  erot = 4.50238997701973 | epot = 1.08112498808887 | etot = 8.14982063693006
352000  ekin = 2.54971525379873 |  erot = 4.48387948145641 | epot = 1.11622590167634 | etot = 8.14982063693147
353000  ekin = 2.53249840615696 |  erot = 4.46495933654936 | epot = 1.15236289422704 | etot = 8.14982063693335
354000  ekin = 2.51468216727038 |  erot = 4.44565739801096 | epot = 1.18948107165431 | etot = 8.14982063693565
355000  ekin = 2.49629827884054 |  erot = 4.42600542629485 | epot = 1.22751693180313 | etot = 8.14982063693852
356000  ekin = 2.47738365616458 |  erot = 4.40603944319886 | epot = 1.26639753757858 | etot = 8.14982063694202
357000  ekin = 2.45798087909048 |  erot = 4.3858000931979 | epot = 1.30603966465779 | etot = 8.14982063694618
358000  ekin = 2.43813869446887 |  erot = 4.36533300004528 | epot = 1.34634894243692 | etot = 8.14982063695108
359000  ekin = 2.41791251719117 |  erot = 4.34468910615899 | epot = 1.38721901360663 | etot = 8.14982063695678
360000  ekin = 2.39736491248455 |  erot = 4.32392497883183 | epot = 1.42853074564696 | etot = 8.14982063696334
361000  ekin = 2.37656603706781 |  erot = 4.30310306345291 | epot = 1.47015153645005 | etot = 8.14982063697076
362000  ekin = 2.35559401120939 |  erot = 4.28229185986865 | epot = 1.51193476590115 | etot = 8.14982063697919
363000  ekin = 2.33453518796098 |  erot = 4.26156599402267 | epot = 1.5537194550049 | etot = 8.14982063698854
364000  ekin = 2.31348428033266 |  erot = 4.2410061535114 | epot = 1.59533020315476 | etot = 8.14982063699882
365000  ekin = 2.29254430260196 |  erot = 4.22069885324451 | epot = 1.63657748116355 | etot = 8.14982063701002
366000  ekin = 2.27182627920028 |  erot = 4.20073599672533 | epot = 1.67725836109646 | etot = 8.14982063702206
367000  ekin = 2.25144867477462 |  erot = 4.18121420040086 | epot = 1.71715776185941 | etot = 8.14982063703489
368000  ekin = 2.23153650326763 |  erot = 4.16223385394098 | epot = 1.75605027983974 | etot = 8.14982063704835
369000  ekin = 2.21222008333011 |  erot = 4.14389789896172 | epot = 1.7937026547704 | etot = 8.14982063706224
370000  ekin = 2.19363342293394 |  erot = 4.12631032308218 | epot = 1.82987689106016 | etot = 8.14982063707628
371000  ekin = 2.17591223796339 |  erot = 4.10957438525141 | epot = 1.86433401387545 | etot = 8.14982063709025
372000  ekin = 2.15919163720793 |  erot = 4.09379061120346 | epot = 1.89683838869246 | etot = 8.14982063710384
373000  ekin = 2.14360353778465 |  erot = 4.07905462297671 | epot = 1.92716247635536 | etot = 8.14982063711672
374000  ekin = 2.12927390755317 |  erot = 4.06545489101949 | epot = 1.95509183855586 | etot = 8.14982063712852
375000  ekin = 2.11631996044165 |  erot = 4.05307051811172 | epot = 1.98043015858554 | etot = 8.14982063713891
376000  ekin = 2.10484745208536 |  erot = 4.04196917750244 | epot = 2.00300400755991 | etot = 8.14982063714771
377000  ekin = 2.09494823232941 |  erot = 4.0322053300393 | epot = 2.02266707478597 | etot = 8.14982063715468
378000  ekin = 2.08669820472421 |  erot = 4.0238188345765 | epot = 2.03930359785887 | etot = 8.14982063715957
379000  ekin = 2.08015582005511 |  erot = 4.01683404237011 | epot = 2.05283077473722 | etot = 8.14982063716244
380000  ekin = 2.07536119282562 |  erot = 4.01125943148935 | epot = 2.0632000128482 | etot = 8.14982063716317
381000  ekin = 2.0723358807941 |  erot = 4.0070877955274 | epot = 2.07039696084037 | etot = 8.14982063716188
382000  ekin = 2.07108331451382 |  erot = 4.00429695752201 | epot = 2.07444036512291 | etot = 8.14982063715874
383000  ekin = 2.07158981352347 |  erot = 4.00285094078152 | epot = 2.07537988284886 | etot = 8.14982063715386
384000  ekin = 2.07382608494044 |  erot = 4.00270149824997 | epot = 2.07329305395729 | etot = 8.14982063714769
385000  ekin = 2.07774907340057 |  erot = 4.00378988438945 | epot = 2.06828167935041 | etot = 8.14982063714043
386000  ekin = 2.08330402061326 |  erot = 4.00604874933877 | epot = 2.06046786717991 | etot = 8.14982063713194
387000  ekin = 2.09042659757305 |  erot = 4.00940404317076 | epot = 2.04998999637913 | etot = 8.14982063712295
388000  ekin = 2.09904498977769 |  erot = 4.01377683559865 | epot = 2.03699881173715 | etot = 8.14982063711349
389000  ekin = 2.10908184139814 |  erot = 4.01908497975702 | epot = 2.02165381594867 | etot = 8.14982063710382
390000  ekin = 2.12045599362429 |  erot = 4.02524457390113 | epot = 2.00412006956866 | etot = 8.14982063709408
391000  ekin = 2.1330839812514 |  erot = 4.03217119877608 | epot = 1.98456545705695 | etot = 8.14982063708442
392000  ekin = 2.14688127688162 |  erot = 4.03978092869061 | epot = 1.96315843150271 | etot = 8.14982063707494
393000  ekin = 2.16176329203307 |  erot = 4.04799112972351 | epot = 1.94006621530902 | etot = 8.1498206370656
394000  ekin = 2.17764615828854 |  erot = 4.05672106867376 | epot = 1.91545341009438 | etot = 8.14982063705668
395000  ekin = 2.19444731962274 |  erot = 4.0658923617407 | epot = 1.88948095568458 | etot = 8.14982063704802
396000  ekin = 2.21208597008323 |  erot = 4.07542929333409 | epot = 1.8623053736224 | etot = 8.14982063703972
397000  ekin = 2.23048337023978 |  erot = 4.08525903390653 | epot = 1.83407823288553 | etot = 8.14982063703185
398000  ekin = 2.24956307249435 |  erot = 4.09531178231869 | epot = 1.80494578221126 | etot = 8.1498206370243
399000  ekin = 2.2692510805835 |  erot = 4.10552085389982 | epot = 1.77504870253387 | etot = 8.1498206370172
400000  ekin = 2.28947596331982 |  erot = 4.11582273077505 | epot = 1.7445219429155 | etot = 8.14982063701037
401000  ekin = 2.3101689374791 |  erot = 4.12615708670058 | epot = 1.71349461282431 | etot = 8.14982063700399
402000  ekin = 2.33126393017729 |  erot = 4.13646679489024 | epot = 1.68208991193042 | etot = 8.14982063699795
403000  ekin = 2.35269762732373 |  erot = 4.14669792427796 | epot = 1.65042508539057 | etot = 8.14982063699227
404000  ekin = 2.37440951185648 |  erot = 4.15679972736652 | epot = 1.61861139776395 | etot = 8.14982063698694
405000  ekin = 2.39634189342129 |  erot = 4.16672462120763 | epot = 1.58675412235305 | etot = 8.14982063698198
406000  ekin = 2.41843992984149 |  erot = 4.17642816203794 | epot = 1.55495254509793 | etot = 8.14982063697736
407000  ekin = 2.44065164000009 |  erot = 4.18586901353697 | epot = 1.52329998343605 | etot = 8.14982063697311
408000  ekin = 2.46292790747237 |  erot = 4.19500890845352 | epot = 1.49188382104331 | etot = 8.1498206369692
409000  ekin = 2.48522247426652 |  erot = 4.20381260335372 | epot = 1.4607855593454 | etot = 8.14982063696564
410000  ekin = 2.50749192423711 |  erot = 4.21224782638591 | epot = 1.43008088633937 | etot = 8.14982063696239
411000  ekin = 2.52969565603426 |  erot = 4.22028521816106 | epot = 1.39983976276418 | etot = 8.1498206369595
412000  ekin = 2.55179584577489 |  erot = 4.22789826606312 | epot = 1.37012652511887 | etot = 8.14982063695689
413000  ekin = 2.57375739992116 |  erot = 4.23506323249593 | epot = 1.34100000453751 | etot = 8.1498206369546
414000  ekin = 2.59554789910035 |  erot = 4.2417590777248 | epot = 1.31251366012744 | etot = 8.14982063695259
415000  ekin = 2.61713753378441 |  erot = 4.24796737807266 | epot = 1.28471572509382 | etot = 8.14982063695088
416000  ekin = 2.6384990328642 |  erot = 4.25367224028277 | epot = 1.25764936380249 | etot = 8.14982063694947
417000  ekin = 2.65960758620853 |  erot = 4.25886021286748 | epot = 1.23135283787233 | etot = 8.14982063694834
418000  ekin = 2.68044076229798 |  erot = 4.26352019523263 | epot = 1.20585967941687 | etot = 8.14982063694747
419000  ekin = 2.70097842198136 |  erot = 4.26764334530923 | epot = 1.18119886965624 | etot = 8.14982063694683
420000  ekin = 2.72120262932762 |  erot = 4.27122298634583 | epot = 1.15739502127303 | etot = 8.14982063694649
421000  ekin = 2.74109756044976 |  erot = 4.27425451342525 | epot = 1.13446856307136 | etot = 8.14982063694636
422000  ekin = 2.76064941106869 |  erot = 4.2767353001746 | epot = 1.11243592570313 | etot = 8.14982063694643
423000  ekin = 2.77984630347188 |  erot = 4.2786646060429 | epot = 1.09130972743188 | etot = 8.14982063694666
424000  ekin = 2.79867819340961 |  erot = 4.28004348443091 | epot = 1.07109895910659 | etot = 8.14982063694711
425000  ekin = 2.81713677736654 |  erot = 4.28087469187535 | epot = 1.05180916770587 | etot = 8.14982063694776
426000  ekin = 2.83521540054968 |  erot = 4.28116259841744 | epot = 1.03344263798144 | etot = 8.14982063694855
427000  ekin = 2.85290896584904 |  erot = 4.28091309922338 | epot = 1.0159985718771 | etot = 8.14982063694952
428000  ekin = 2.87021384395501 |  erot = 4.2801335274737 | epot = 0.999473265521954 | etot = 8.14982063695066
429000  ekin = 2.88712778475659 |  erot = 4.27883256849925 | epot = 0.983860283696108 | etot = 8.14982063695194
430000  ekin = 2.90364983009842 |  erot = 4.27702017511216 | epot = 0.969150631742741 | etot = 8.14982063695332
431000  ekin = 2.91978022793925 |  erot = 4.27470748406206 | epot = 0.955332924953509 | etot = 8.14982063695482
432000  ekin = 2.93552034793153 |  erot = 4.27190673353801 | epot = 0.942393555486914 | etot = 8.14982063695646
433000  ekin = 2.95087259842861 |  erot = 4.2686311816357 | epot = 0.930316856893873 | etot = 8.14982063695818
434000  ekin = 2.96584034492218 |  erot = 4.26489502571613 | epot = 0.919085266321703 | etot = 8.14982063696002
435000  ekin = 2.98042782991642 |  erot = 4.26071332259456 | epot = 0.908679484450947 | etot = 8.14982063696193
436000  ekin = 2.99464009425633 |  erot = 4.25610190951699 | epot = 0.899078633190567 | etot = 8.14982063696388
437000  ekin = 3.0084828999438 |  erot = 4.2510773259041 | epot = 0.890260411118034 | etot = 8.14982063696593
438000  ekin = 3.02196265449556 |  erot = 4.24565673586867 | epot = 0.88220124660382 | etot = 8.14982063696805
439000  ekin = 3.03508633692102 |  erot = 4.23985785154155 | epot = 0.87487644850763 | etot = 8.1498206369702
440000  ekin = 3.04786142542352 |  erot = 4.23369885727111 | epot = 0.868260354277755 | etot = 8.14982063697239
441000  ekin = 3.060295826955 |  erot = 4.22719833479224 | epot = 0.86232647522737 | etot = 8.1498206369746
442000  ekin = 3.07239780878063 |  erot = 4.22037518949168 | epot = 0.857047638704536 | etot = 8.14982063697684
443000  ekin = 3.08417593223488 |  erot = 4.21324857792588 | epot = 0.852396126818343 | etot = 8.1498206369791
444000  ekin = 3.09563898887319 |  erot = 4.20583783677508 | epot = 0.84834381133309 | etot = 8.14982063698136
445000  ekin = 3.10679593924354 |  erot = 4.19816241344263 | epot = 0.84486228429744 | etot = 8.14982063698362
446000  ekin = 3.11765585451764 |  erot = 4.19024179852938 | epot = 0.841922983938856 | etot = 8.14982063698587
447000  ekin = 3.12822786123306 |  erot = 4.18209546043097 | epot = 0.839497315324096 | etot = 8.14982063698812
448000  ekin = 3.13852108940334 |  erot = 4.17374278231848 | epot = 0.837556765268534 | etot = 8.14982063699036
449000  ekin = 3.14854462425372 |  erot = 4.16520300177058 | epot = 0.836073010968239 | etot = 8.14982063699254
450000  ekin = 3.15830746183454 |  erot = 4.15649515332809 | epot = 0.835018021832078 | etot = 8.14982063699471
451000  ekin = 3.16781846875259 |  erot = 4.14763801423912 | epot = 0.834364154005108 | etot = 8.14982063699683
452000  ekin = 3.17708634624322 |  erot = 4.13865005365425 | epot = 0.834084237101419 | etot = 8.14982063699888
453000  ekin = 3.18611959878216 |  erot = 4.12954938551797 | epot = 0.834151652700769 | etot = 8.14982063700091
454000  ekin = 3.1949265074075 |  erot = 4.12035372538382 | epot = 0.834540404211538 | etot = 8.14982063700285
455000  ekin = 3.20351510788755 |  erot = 4.11108035135717 | epot = 0.835225177760052 | etot = 8.14982063700477
456000  ekin = 3.21189317383291 |  erot = 4.10174606934276 | epot = 0.83618139383095 | etot = 8.14982063700661
457000  ekin = 3.22006820480845 |  erot = 4.09236718274285 | epot = 0.837385249457099 | etot = 8.1498206370084
458000  ekin = 3.22804741945732 |  erot = 4.08295946671876 | epot = 0.838813750834052 | etot = 8.14982063701013
459000  ekin = 3.23583775360268 |  erot = 4.07353814709313 | epot = 0.840444736315965 | etot = 8.14982063701177
460000  ekin = 3.24344586324633 |  erot = 4.06411788393381 | epot = 0.842256889833182 | etot = 8.14982063701332
461000  ekin = 3.25087813233735 |  erot = 4.05471275982362 | epot = 0.844229744853858 | etot = 8.14982063701482
462000  ekin = 3.25814068513834 |  erot = 4.04533627278374 | epot = 0.84634367909422 | etot = 8.1498206370163
463000  ekin = 3.26523940297443 |  erot = 4.03600133378389 | epot = 0.848579900259353 | etot = 8.14982063701767
464000  ekin = 3.27217994510974 |  erot = 4.02672026873782 | epot = 0.85092042317149 | etot = 8.14982063701905
465000  ekin = 3.27896777345899 |  erot = 4.01750482485224 | epot = 0.853348038709101 | etot = 8.14982063702033
466000  ekin = 3.28560818080942 |  erot = 4.00836618116701 | epot = 0.855846275045139 | etot = 8.14982063702157
467000  ekin = 3.29210632219827 |  erot = 3.99931496309786 | epot = 0.858399351726605 | etot = 8.14982063702274
468000  ekin = 3.29846724906609 |  erot = 3.99036126076783 | epot = 0.860992127189925 | etot = 8.14982063702384
469000  ekin = 3.30469594578426 |  erot = 3.9815146508902 | epot = 0.86361004035045 | etot = 8.14982063702491
470000  ekin = 3.31079736813634 |  erot = 3.97278422194388 | epot = 0.866239046945732 | etot = 8.14982063702596
471000  ekin = 3.31677648331678 |  erot = 3.96417860236076 | epot = 0.868865551349416 | etot = 8.14982063702696
472000  ekin = 3.32263831099612 |  erot = 3.9557059914227 | epot = 0.871476334609109 | etot = 8.14982063702793
473000  ekin = 3.32838796498802 |  erot = 3.94737419254302 | epot = 0.874058479497794 | etot = 8.14982063702884
474000  ekin = 3.33403069504008 |  erot = 3.93919064858224 | epot = 0.876599293407437 | etot = 8.14982063702975
475000  ekin = 3.33957192825506 |  erot = 3.93116247881986 | epot = 0.879086229955759 | etot = 8.14982063703068
476000  ekin = 3.34501730963313 |  erot = 3.92329651717189 | epot = 0.881506810226539 | etot = 8.14982063703156
477000  ekin = 3.35037274120576 |  erot = 3.91559935120728 | epot = 0.883848544619403 | etot = 8.14982063703244
478000  ekin = 3.35564441920945 |  erot = 3.90807736147496 | epot = 0.886098856348913 | etot = 8.14982063703332
479000  ekin = 3.36083886872182 |  erot = 3.90073676060613 | epot = 0.888245007706222 | etot = 8.14982063703418
480000  ekin = 3.36596297515307 |  erot = 3.89358363160542 | epot = 0.890274030276565 | etot = 8.14982063703505
481000  ekin = 3.371024011954 |  erot = 3.88662396468791 | epot = 0.892172660394037 | etot = 8.14982063703595
482000  ekin = 3.37602966386908 |  erot = 3.87986369196146 | epot = 0.893927281206358 | etot = 8.14982063703689
483000  ekin = 3.38098804502974 |  erot = 3.87330871919312 | epot = 0.89552387281497 | etot = 8.14982063703783
484000  ekin = 3.38590771115358 |  erot = 3.8669649538418 | epot = 0.896947972043415 | etot = 8.14982063703879
485000  ekin = 3.39079766509056 |  erot = 3.86083832848549 | epot = 0.898184643463714 | etot = 8.14982063703977
486000  ekin = 3.39566735494312 |  erot = 3.85493481872832 | epot = 0.899218463369339 | etot = 8.14982063704077
487000  ekin = 3.40052666398586 |  erot = 3.84926045464151 | epot = 0.900033518414402 | etot = 8.14982063704178
488000  ekin = 3.40538589162876 |  erot = 3.84382132478142 | epot = 0.900613420632642 | etot = 8.14982063704283
489000  ekin = 3.41025572470824 |  erot = 3.83862357183931 | epot = 0.900941340496337 | etot = 8.14982063704388
490000  ekin = 3.41514719846084 |  erot = 3.83367337902018 | epot = 0.901000059563937 | etot = 8.14982063704496
491000  ekin = 3.42007164663674 |  erot = 3.82897694632496 | epot = 0.900772044084348 | etot = 8.14982063704605
492000  ekin = 3.42504064035092 |  erot = 3.82454045602714 | epot = 0.900239540669082 | etot = 8.14982063704714
493000  ekin = 3.43006591545052 |  erot = 3.82037002679661 | epot = 0.899384694801087 | etot = 8.14982063704822
494000  ekin = 3.43515928839983 |  erot = 3.81647165613038 | epot = 0.898189692519049 | etot = 8.14982063704926
495000  ekin = 3.4403325609485 |  erot = 3.81285115100449 | epot = 0.896636925097316 | etot = 8.14982063705031
496000  ekin = 3.44559741415164 |  erot = 3.80951404696065 | epot = 0.894709175939045 | etot = 8.14982063705133
497000  ekin = 3.45096529264607 |  erot = 3.80646551618039 | epot = 0.89238982822584 | etot = 8.1498206370523
498000  ekin = 3.45644728044666 |  erot = 3.80371026547154 | epot = 0.88966309113498 | etot = 8.14982063705318
499000  ekin = 3.46205396989835 |  erot = 3.80125242548386 | epot = 0.886514241671763 | etot = 8.14982063705397
500000  ekin = 3.46779532578832 |  erot = 3.7990954328699 | epot = 0.882929878396487 | etot = 8.14982063705471
501000  ekin = 3.47368054697139 |  erot = 3.79724190749534 | epot = 0.878898182588556 | etot = 8.14982063705529
502000  ekin = 3.47971792817078 |  erot = 3.79569352716076 | epot = 0.874409181724232 | etot = 8.14982063705578
503000  ekin = 3.48591472486658 |  erot = 3.79445090260372 | epot = 0.869455009585787 | etot = 8.1498206370561
504000  ekin = 3.49227702435614 |  erot = 3.79351345578606 | epot = 0.864030156914047 | etot = 8.14982063705625
505000  ekin = 3.49880962614696 |  erot = 3.7928793046165 | epot = 0.858131706292641 | etot = 8.1498206370561
506000  ekin = 3.50551593481044 |  erot = 3.79254515729859 | epot = 0.85175954494685 | etot = 8.14982063705588
507000  ekin = 3.51239786827512 |  erot = 3.79250621941646 | epot = 0.84491654936385 | etot = 8.14982063705543
508000  ekin = 3.51945578426874 |  erot = 3.79275611667122 | epot = 0.837608736114848 | etot = 8.1498206370548
509000  ekin = 3.52668842723393 |  erot = 3.7932868358604 | epot = 0.829845373959641 | etot = 8.14982063705398
510000  ekin = 3.5340928975544 |  erot = 3.79408868626073 | epot = 0.821639053237784 | etot = 8.14982063705292
511000  ekin = 3.54166464435533 |  erot = 3.79515028304605 | epot = 0.813005709650291 | etot = 8.14982063705167
512000  ekin = 3.54939748250811 |  erot = 3.79645855377069 | epot = 0.803964600771389 | etot = 8.14982063705018
513000  ekin = 3.55728363380309 |  erot = 3.79799876829968 | epot = 0.794538234945732 | etot = 8.1498206370485
514000  ekin = 3.56531379158682 |  erot = 3.7997545919028 | epot = 0.784752253557 | etot = 8.14982063704663
515000  ekin = 3.57347720752237 |  erot = 3.80170816057982 | epot = 0.774635268942403 | etot = 8.1498206370446
516000  ekin = 3.58176179855249 |  erot = 3.80384017707991 | epot = 0.764218661410022 | etot = 8.14982063704242
517000  ekin = 3.59015427165066 |  erot = 3.80613002554644 | epot = 0.753536339842998 | etot = 8.1498206370401
518000  ekin = 3.59864026355379 |  erot = 3.80855590228029 | epot = 0.742624471203581 | etot = 8.14982063703766
519000  ekin = 3.60720449239578 |  erot = 3.81109495978686 | epot = 0.73152118485251 | etot = 8.14982063703514
520000  ekin = 3.61583091800844 |  erot = 3.81372346106242 | epot = 0.720266257961646 | etot = 8.14982063703251
521000  ekin = 3.62450290762501 |  erot = 3.81641694098599 | epot = 0.708900788418819 | etot = 8.14982063702982
522000  ekin = 3.63320340380229 |  erot = 3.81915037170795 | epot = 0.697466861516892 | etot = 8.14982063702713
523000  ekin = 3.64191509155895 |  erot = 3.82189832905692 | epot = 0.686007216408551 | etot = 8.14982063702442
524000  ekin = 3.65062056199139 |  erot = 3.82463515720477 | epot = 0.674564917825539 | etot = 8.1498206370217
525000  ekin = 3.65930246995568 |  erot = 3.82733512911979 | epot = 0.663183037943557 | etot = 8.14982063701903
526000  ekin = 3.6679436837744 |  erot = 3.82997260067901 | epot = 0.651904352563002 | etot = 8.14982063701642
527000  ekin = 3.67652742531999 |  erot = 3.83252215668389 | epot = 0.640771055009961 | etot = 8.14982063701384
528000  ekin = 3.68503739922376 |  erot = 3.83495874740951 | epot = 0.629824490378078 | etot = 8.14982063701135
529000  ekin = 3.6934579103458 |  erot = 3.83725781469983 | epot = 0.619104911963345 | etot = 8.14982063700897
530000  ekin = 3.70177396900176 |  erot = 3.83939540698641 | epot = 0.608651261018499 | etot = 8.14982063700667
531000  ekin = 3.70997138376985 |  erot = 3.8413482829441 | epot = 0.598500970290552 | etot = 8.14982063700451
532000  ekin = 3.71803684198565 |  erot = 3.84309400379641 | epot = 0.588689791220412 | etot = 8.14982063700247
533000  ekin = 3.72595797827314 |  erot = 3.84461101454062 | epot = 0.579251644186793 | etot = 8.14982063700056
534000  ekin = 3.73372343165285 |  erot = 3.84587871457556 | epot = 0.570218490770388 | etot = 8.1498206369988
535000  ekin = 3.74132289191592 |  erot = 3.84687751838273 | epot = 0.561620226698506 | etot = 8.14982063699716
536000  ekin = 3.74874713605726 |  erot = 3.8475889070363 | epot = 0.553484593902094 | etot = 8.14982063699566
537000  ekin = 3.755988055625 |  erot = 3.84799547140144 | epot = 0.545837109967907 | etot = 8.14982063699435
538000  ekin = 3.76303867587372 |  erot = 3.84808094792765 | epot = 0.538701013191802 | etot = 8.14982063699317
539000  ekin = 3.7698931676079 |  erot = 3.8478302479586 | epot = 0.532097221425641 | etot = 8.14982063699215
540000  ekin = 3.77654685257574 |  erot = 3.84722948146687 | epot = 0.526044302948657 | etot = 8.14982063699127
541000  ekin = 3.78299620322747 |  erot = 3.84626597608465 | epot = 0.520558457678417 | etot = 8.14982063699054
542000  ekin = 3.78923883758909 |  erot = 3.84492829224622 | epot = 0.515653507154654 | etot = 8.14982063698996
543000  ekin = 3.79527350992799 |  erot = 3.84320623518587 | epot = 0.511340891875675 | etot = 8.14982063698954
544000  ekin = 3.80110009780382 |  erot = 3.84109086445212 | epot = 0.50762967473333 | etot = 8.14982063698927
545000  ekin = 3.80671958600896 |  erot = 3.83857450150674 | epot = 0.504526549473452 | etot = 8.14982063698915
546000  ekin = 3.81213404781195 |  erot = 3.83565073587893 | epot = 0.502035853298303 | etot = 8.14982063698918
547000  ekin = 3.8173466238247 |  erot = 3.83231443024242 | epot = 0.500159582922236 | etot = 8.14982063698935
548000  ekin = 3.8223614987237 |  erot = 3.82856172467869 | epot = 0.498897413587269 | etot = 8.14982063698966
549000  ekin = 3.82718387596669 |  erot = 3.82439004028416 | epot = 0.4982467207393 | etot = 8.14982063699014
550000  ekin = 3.83181995056222 |  erot = 3.81979808217414 | epot = 0.498202604254385 | etot = 8.14982063699074
551000  ekin = 3.83627687986962 |  erot = 3.81478584183359 | epot = 0.498757915288292 | etot = 8.1498206369915
552000  ekin = 3.84056275233408 |  erot = 3.80935459866377 | epot = 0.499903285994547 | etot = 8.14982063699239
553000  ekin = 3.84468655399467 |  erot = 3.80350692047833 | epot = 0.501627162520434 | etot = 8.14982063699344
554000  ekin = 3.83787332633773 |  erot = 3.76568956980637 | epot = 0.546257680894471 | etot = 8.14982057703857
555000  ekin = 3.81553348852002 |  erot = 3.53250221438205 | epot = 0.801784929943884 | etot = 8.14982063284594
556000  ekin = 4.00089451241793 |  erot = 3.44900286597181 | epot = 0.699923231476636 | etot = 8.14982060986638
557000  ekin = 4.15508435426047 |  erot = 3.48302329338067 | epot = 0.511712969217652 | etot = 8.14982061685879
558000  ekin = 4.16064123328785 |  erot = 3.47441841296077 | epot = 0.514760970611538 | etot = 8.14982061686017
559000  ekin = 4.16603300754055 |  erot = 3.46550607880771 | epot = 0.518281530513417 | etot = 8.14982061686168
560000  ekin = 4.17127187650366 |  erot = 3.45629553410232 | epot = 0.522253206257367 | etot = 8.14982061686335
561000  ekin = 4.17637054727344 |  erot = 3.44679718560744 | epot = 0.526652883984173 | etot = 8.14982061686505
562000  ekin = 4.18134217741833 |  erot = 3.43702258416654 | epot = 0.531455855281978 | etot = 8.14982061686685
563000  ekin = 4.18620031325515 |  erot = 3.42698439862159 | epot = 0.536635904992036 | etot = 8.14982061686878
564000  ekin = 4.1909588234453 |  erot = 3.41669638251919 | epot = 0.542165410906317 | etot = 8.1498206168708
565000  ekin = 4.19563182791531 |  erot = 3.40617333305289 | epot = 0.548015455904651 | etot = 8.14982061687286
566000  ekin = 4.20023362222329 |  erot = 3.39543104179543 | epot = 0.554155952856301 | etot = 8.14982061687502
567000  ekin = 4.20477859762381 |  erot = 3.38448623690705 | epot = 0.560555782346361 | etot = 8.14982061687722
568000  ekin = 4.20928115722822 |  erot = 3.37335651666671 | epot = 0.567182942984532 | etot = 8.14982061687947
569000  ekin = 4.21375562881085 |  erot = 3.36206027435635 | epot = 0.574004713714532 | etot = 8.14982061688173
570000  ekin = 4.21821617496883 |  erot = 3.35061661473472 | epot = 0.580987827180504 | etot = 8.14982061688405
571000  ekin = 4.22267670150118 |  erot = 3.33904526255984 | epot = 0.588098652825349 | etot = 8.14982061688637
572000  ekin = 4.22715076502287 |  erot = 3.32736646385216 | epot = 0.595303388013635 | etot = 8.14982061688866
573000  ekin = 4.23165148096628 |  erot = 3.31560088082714 | epot = 0.602568255097498 | etot = 8.14982061689092
574000  ekin = 4.23619143323853 |  erot = 3.30376948165707 | epot = 0.609859701997558 | etot = 8.14982061689316
575000  ekin = 4.24078258689087 |  erot = 3.29189342643742 | epot = 0.617144603567086 | etot = 8.14982061689537
576000  ekin = 4.24543620520898 |  erot = 3.2799939509243 | epot = 0.624390460764245 | etot = 8.14982061689752
577000  ekin = 4.25016277264535 |  erot = 3.26809224976563 | epot = 0.631565594488575 | etot = 8.14982061689955
578000  ekin = 4.25497192498058 |  erot = 3.25620936105976 | epot = 0.638639330861151 | etot = 8.14982061690149
579000  ekin = 4.25987238801812 |  erot = 3.2443660541354 | epot = 0.645582174749858 | etot = 8.14982061690337
580000  ekin = 4.26487192598461 |  erot = 3.23258272244691 | epot = 0.652365968473596 | etot = 8.14982061690512
581000  ekin = 4.26997730062778 |  erot = 3.22087928341818 | epot = 0.658964032860763 | etot = 8.14982061690672
582000  ekin = 4.27519424177854 |  erot = 3.20927508694297 | epot = 0.665351288186729 | etot = 8.14982061690824
583000  ekin = 4.28052742988166 |  erot = 3.19778883406374 | epot = 0.671504352964117 | etot = 8.14982061690952
584000  ekin = 4.28598049070736 |  erot = 3.18643850710837 | epot = 0.677401619095045 | etot = 8.14982061691078
585000  ekin = 4.29155600214539 |  erot = 3.17524131227359 | epot = 0.683023302492924 | etot = 8.1498206169119
586000  ekin = 4.29725551266595 |  erot = 3.16421363531507 | epot = 0.688351468931841 | etot = 8.14982061691286
587000  ekin = 4.30307957072039 |  erot = 3.1533710106513 | epot = 0.693370035542011 | etot = 8.1498206169137
588000  ekin = 4.3090277640611 |  erot = 3.14272810382272 | epot = 0.698064749030559 | etot = 8.14982061691438
589000  ekin = 4.31509876769861 |  erot = 3.13229870688667 | epot = 0.702423142329705 | etot = 8.14982061691499
590000  ekin = 4.32129039899185 |  erot = 3.12209574598403 | epot = 0.706434471939561 | etot = 8.14982061691545
591000  ekin = 4.32759967819688 |  erot = 3.11213129999983 | epot = 0.710089638719076 | etot = 8.14982061691578
592000  ekin = 4.33402289268412 |  erot = 3.10241662896769 | epot = 0.713381095264198 | etot = 8.14982061691601
593000  ekin = 4.34055566297952 |  erot = 3.09296221064694 | epot = 0.71630274328971 | etot = 8.14982061691617
594000  ekin = 4.34719300879094 |  erot = 3.08377778353697 | epot = 0.718849824588305 | etot = 8.14982061691621
595000  ekin = 4.35392941324678 |  erot = 3.07487239449064 | epot = 0.721018809178759 | etot = 8.14982061691618
596000  ekin = 4.36075888369502 |  erot = 3.06625444904759 | epot = 0.722807284173484 | etot = 8.1498206169161
597000  ekin = 4.36767500758118 |  erot = 3.05793176262755 | epot = 0.724213846707242 | etot = 8.14982061691597
598000  ekin = 4.37467100213586 |  erot = 3.04991161080029 | epot = 0.72523800397957 | etot = 8.14982061691573
599000  ekin = 4.38173975684773 |  erot = 3.04220077697557 | epot = 0.725880083092179 | etot = 8.14982061691548
600000  ekin = 4.38887386796629 |  erot = 3.03480559602743 | epot = 0.726141152921473 | etot = 8.14982061691519
601000  ekin = 4.39606566456081 |  erot = 3.02773199257423 | epot = 0.726022959779794 | etot = 8.14982061691484
602000  ekin = 4.4033072259484 |  erot = 3.02098551286991 | epot = 0.725527878096153 | etot = 8.14982061691446
603000  ekin = 4.41059039058546 |  erot = 3.01457134951444 | epot = 0.724658876814246 | etot = 8.14982061691415
604000  ekin = 4.41790675678514 |  erot = 3.00849435845521 | epot = 0.723419501673394 | etot = 8.14982061691374
605000  ekin = 4.42524767587077 |  erot = 3.00275906801544 | epot = 0.72181387302708 | etot = 8.14982061691329
606000  ekin = 4.43260423859645 |  erot = 2.99736967994594 | epot = 0.7198466983704 | etot = 8.14982061691279
607000  ekin = 4.43996725585422 |  erot = 2.99233006274413 | epot = 0.717523298313909 | etot = 8.14982061691226
608000  ekin = 4.44732723484015 |  erot = 2.98764373771355 | epot = 0.714849644357988 | etot = 8.14982061691168
609000  ekin = 4.45467435196491 |  erot = 2.9833138584438 | epot = 0.711832406502358 | etot = 8.14982061691107
610000  ekin = 4.46199842386801 |  erot = 2.9793431845696 | epot = 0.708479008472809 | etot = 8.14982061691042
611000  ekin = 4.46928887792595 |  erot = 2.97573405081582 | epot = 0.704797688167992 | etot = 8.14982061690976
612000  ekin = 4.47653472363616 |  erot = 2.97248833245041 | epot = 0.700797560822465 | etot = 8.14982061690903
613000  ekin = 4.4837245262106 |  erot = 2.9696074083468 | epot = 0.696488682350846 | etot = 8.14982061690825
614000  ekin = 4.49084638362821 |  erot = 2.96709212290185 | epot = 0.691882110377324 | etot = 8.14982061690738
615000  ekin = 4.49788790827802 |  erot = 2.96494274806437 | epot = 0.686989960564094 | etot = 8.14982061690648
616000  ekin = 4.50483621417903 |  erot = 2.9631589467036 | epot = 0.681825456022894 | etot = 8.14982061690553
617000  ekin = 4.51167791059285 |  erot = 2.96173973848927 | epot = 0.676402967822364 | etot = 8.14982061690448
618000  ekin = 4.51839910265805 |  erot = 2.96068346936727 | epot = 0.67073804487809 | etot = 8.14982061690341
619000  ekin = 4.52498539947524 |  erot = 2.95998778560128 | epot = 0.664847431825738 | etot = 8.14982061690226
620000  ekin = 4.53142192986723 |  erot = 2.95964961321544 | epot = 0.658749073818362 | etot = 8.14982061690103
621000  ekin = 4.5376933658339 |  erot = 2.95966514351989 | epot = 0.652462107545935 | etot = 8.14982061689972
622000  ekin = 4.54378395352363 |  erot = 2.9600298252369 | epot = 0.64600683813786 | etot = 8.14982061689838
623000  ekin = 4.5496775513575 |  erot = 2.96073836357314 | epot = 0.639404701966304 | etot = 8.14982061689695
624000  ekin = 4.55535767477389 |  erot = 2.96178472641142 | epot = 0.632678215710127 | etot = 8.14982061689543
625000  ekin = 4.56080754691461 |  erot = 2.96316215762548 | epot = 0.625850912353781 | etot = 8.14982061689386
626000  ekin = 4.56601015445076 |  erot = 2.96486319736145 | epot = 0.618947265080022 | etot = 8.14982061689223
627000  ekin = 4.57094830765229 |  erot = 2.96687970898131 | epot = 0.611992600256971 | etot = 8.14982061689057
628000  ekin = 4.57560470373748 |  erot = 2.96920291223319 | epot = 0.605013000918167 | etot = 8.14982061688884
629000  ekin = 4.5799619925011 |  erot = 2.97182342210087 | epot = 0.598035202285123 | etot = 8.1498206168871
630000  ekin = 4.58400284320949 |  erot = 2.97473129269471 | epot = 0.591086480981138 | etot = 8.14982061688534
631000  ekin = 4.58771001176659 |  erot = 2.97791606547803 | epot = 0.584194539638967 | etot = 8.14982061688358
632000  ekin = 4.59106640719546 |  erot = 2.98136682107808 | epot = 0.577387388608272 | etot = 8.14982061688181
633000  ekin = 4.59405515654091 |  erot = 2.9850722339077 | epot = 0.570693226431439 | etot = 8.14982061688005
634000  ekin = 4.59665966737751 |  erot = 2.98902062882243 | epot = 0.564140320678352 | etot = 8.14982061687829
635000  ekin = 4.59886368720125 |  erot = 2.9932000390556 | epot = 0.557756890619696 | etot = 8.14982061687655
636000  ekin = 4.60065135908651 |  erot = 2.9975982647095 | epot = 0.551570993078834 | etot = 8.14982061687484
637000  ekin = 4.60200727310118 |  erot = 3.00220293113002 | epot = 0.545610412641916 | etot = 8.14982061687311
638000  ekin = 4.60291651308739 |  erot = 3.00700154655479 | epot = 0.539902557229251 | etot = 8.14982061687144
639000  ekin = 4.60336469853016 |  erot = 3.01198155849491 | epot = 0.53447435984473 | etot = 8.1498206168698
640000  ekin = 4.60333802134919 |  erot = 3.01713040838831 | epot = 0.529352187130691 | etot = 8.14982061686819
641000  ekin = 4.60282327755711 |  erot = 3.02243558414345 | epot = 0.52456175516608 | etot = 8.14982061686664
642000  ekin = 4.60180789382898 |  erot = 3.0278846702735 | epot = 0.520128052762668 | etot = 8.14982061686515
643000  ekin = 4.60027994912097 |  erot = 3.03346539540303 | epot = 0.516075272339666 | etot = 8.14982061686367
644000  ekin = 4.59822819156107 |  erot = 3.03916567700628 | epot = 0.512426748294903 | etot = 8.14982061686226
645000  ekin = 4.5956420509083 |  erot = 3.04497366330991 | epot = 0.509204902642692 | etot = 8.14982061686091
646000  ekin = 4.59251164694173 |  erot = 3.05087777236065 | epot = 0.506431197557227 | etot = 8.14982061685961
647000  ekin = 4.58882779419442 |  erot = 3.05686672831927 | epot = 0.504126094344678 | etot = 8.14982061685837
648000  ekin = 4.58458200349174 |  erot = 3.06292959509572 | epot = 0.50230901826971 | etot = 8.14982061685718
649000  ekin = 4.57976648078809 |  erot = 3.06905580748658 | epot = 0.500998328581413 | etot = 8.14982061685607
650000  ekin = 4.57437412382205 |  erot = 3.07523520001399 | epot = 0.500211293018988 | etot = 8.14982061685503
651000  ekin = 4.56839851712817 |  erot = 3.08145803369662 | epot = 0.49996406602928 | etot = 8.14982061685407
652000  ekin = 4.56183392595341 |  erot = 3.08771502100622 | epot = 0.500271669893523 | etot = 8.14982061685315
653000  ekin = 4.55467528963193 |  erot = 3.09399734928084 | epot = 0.501147977939534 | etot = 8.1498206168523
654000  ekin = 4.54691821496955 |  erot = 3.10029670287634 | epot = 0.502605699005616 | etot = 8.1498206168515
655000  ekin = 4.53855897018451 |  erot = 3.1066052843431 | epot = 0.504656362323162 | etot = 8.14982061685077
656000  ekin = 4.52959447994146 |  erot = 3.11291583491542 | epot = 0.507310301993252 | etot = 8.14982061685013
657000  ekin = 4.52002232200387 |  erot = 3.11922165459724 | epot = 0.510576640248422 | etot = 8.14982061684953
658000  ekin = 4.50984072601534 |  erot = 3.12551662212066 | epot = 0.514463268713032 | etot = 8.14982061684903
659000  ekin = 4.49904857490503 |  erot = 3.1317952150434 | epot = 0.518976826900132 | etot = 8.14982061684857
660000  ekin = 4.48764540939516 |  erot = 3.13805253023869 | epot = 0.52412267721433 | etot = 8.14982061684818
661000  ekin = 4.47563143607136 |  erot = 3.14428430501608 | epot = 0.529904875760414 | etot = 8.14982061684786
662000  ekin = 4.46300753945892 |  erot = 3.1504869390954 | epot = 0.536326138293287 | etot = 8.14982061684761
663000  ekin = 4.44977529852937 |  erot = 3.15665751763697 | epot = 0.543387800681078 | etot = 8.14982061684742
664000  ekin = 4.43593700804338 |  erot = 3.16279383551168 | epot = 0.551089773292278 | etot = 8.14982061684734
665000  ekin = 4.42149570511579 |  erot = 3.16889442297188 | epot = 0.55943048875966 | etot = 8.14982061684733
666000  ekin = 4.40645520136789 |  erot = 3.17495857285909 | epot = 0.568406842620438 | etot = 8.14982061684742
667000  ekin = 4.39082012100714 |  erot = 3.180986369457 | epot = 0.578014126383496 | etot = 8.14982061684764
668000  ekin = 4.37459594514748 |  erot = 3.18697871906571 | epot = 0.588245952634736 | etot = 8.14982061684793
669000  ekin = 4.35778906264951 |  erot = 3.19293738233589 | epot = 0.599094171862875 | etot = 8.14982061684827
670000  ekin = 4.34040682771845 |  erot = 3.19886500835807 | epot = 0.610548780772217 | etot = 8.14982061684874
671000  ekin = 4.32245762444725 |  erot = 3.20476517044915 | epot = 0.62259782195292 | etot = 8.14982061684932
672000  ekin = 4.30395093842669 |  erot = 3.21064240351675 | epot = 0.6352272749066 | etot = 8.14982061685004
673000  ekin = 4.28489743546372 |  erot = 3.21650224280671 | epot = 0.648420938580442 | etot = 8.14982061685087
674000  ekin = 4.26530904734693 |  erot = 3.22235126375022 | epot = 0.662160305754707 | etot = 8.14982061685185
675000  ekin = 4.24519906447101 |  erot = 3.22819712252099 | epot = 0.676424429860964 | etot = 8.14982061685297
676000  ekin = 4.22458223497481 |  erot = 3.23404859678769 | epot = 0.691189785091786 | etot = 8.14982061685429
[...]
833000  ekin = 3.10649696700628 |  erot = 4.35130414717412 | epot = 0.692019488578119 | etot = 8.14982060275851
834000  ekin = 3.06779108700156 |  erot = 4.33645742750265 | epot = 0.745572092888523 | etot = 8.14982060739273
835000  ekin = 3.03758695402351 |  erot = 4.32852116355855 | epot = 0.78371249289232 | etot = 8.14982061047438
836000  ekin = 3.04801536863083 |  erot = 4.33922044028735 | epot = 0.762584799706877 | etot = 8.14982060862506
837000  ekin = 3.08287003307109 |  erot = 4.35864125472122 | epot = 0.708309316308164 | etot = 8.14982060410047
838000  ekin = 3.09863352211706 |  erot = 4.36630845644776 | epot = 0.684878631679064 | etot = 8.14982061024389
839000  ekin = 3.09846901551242 |  erot = 4.365266923051 | epot = 0.686084671678944 | etot = 8.14982061024236
840000  ekin = 3.0983373999526 |  erot = 4.36398760317215 | epot = 0.687495607116122 | etot = 8.14982061024087
841000  ekin = 3.09823489746518 |  erot = 4.36245850332103 | epot = 0.689127209453266 | etot = 8.14982061023947
842000  ekin = 3.09815794801558 |  erot = 4.36066837740993 | epot = 0.690994284812651 | etot = 8.14982061023816
843000  ekin = 3.09810322975451 |  erot = 4.35860678011751 | epot = 0.69311060036488 | etot = 8.14982061023689
844000  ekin = 3.09806767608417 |  erot = 4.35626411334572 | epot = 0.695488820805862 | etot = 8.14982061023574
845000  ekin = 3.09804848955051 |  erot = 4.35363166556794 | epot = 0.698140455116239 | etot = 8.14982061023468
846000  ekin = 3.08798392331516 |  erot = 4.2683650349225 | epot = 0.793471650674095 | etot = 8.14982060891176
847000  ekin = 3.15180365132888 |  erot = 4.01095978933774 | epot = 0.987057210457762 | etot = 8.14982065112438
848000  ekin = 3.40100070729612 |  erot = 3.93849373622903 | epot = 0.81032616826319 | etot = 8.14982061178834
849000  ekin = 3.49309696988418 |  erot = 3.95093864925785 | epot = 0.705784978503371 | etot = 8.14982059764541
850000  ekin = 3.49204162870901 |  erot = 3.95080400066966 | epot = 0.70697496826573 | etot = 8.1498205976444
851000  ekin = 3.49085337899646 |  erot = 3.95046320548747 | epot = 0.70850401315957 | etot = 8.1498205976435
852000  ekin = 3.48952893830785 |  erot = 3.94990986292807 | epot = 0.710381796406739 | etot = 8.14982059764266
853000  ekin = 3.48806535549171 |  erot = 3.94913852952102 | epot = 0.712616712629185 | etot = 8.14982059764192
854000  ekin = 3.48646001703725 |  erot = 3.94814471857929 | epot = 0.71521586202477 | etot = 8.14982059764131
855000  ekin = 3.48471065237228 |  erot = 3.94692489450544 | epot = 0.718185050763049 | etot = 8.14982059764077
856000  ekin = 3.48281533832447 |  erot = 3.94547646228761 | epot = 0.721528797028265 | etot = 8.14982059764034
857000  ekin = 3.48077250296088 |  erot = 3.94379775255734 | epot = 0.725250342121761 | etot = 8.14982059763999
858000  ekin = 3.47858092901242 |  erot = 3.94188800259415 | epot = 0.729351666033157 | etot = 8.14982059763972
859000  ekin = 3.47623975707775 |  erot = 3.9397473336678 | epot = 0.733833506893989 | etot = 8.14982059763955
860000  ekin = 3.4737484887857 |  erot = 3.93737672511132 | epot = 0.738695383742438 | etot = 8.14982059763946
861000  ekin = 3.47110699007619 |  erot = 3.93477798551397 | epot = 0.743935622049322 | etot = 8.14982059763949
862000  ekin = 3.46831549473826 |  erot = 3.93195372141638 | epot = 0.749551381484977 | etot = 8.14982059763962
863000  ekin = 3.46537460831925 |  erot = 3.92890730387805 | epot = 0.755538685442461 | etot = 8.14982059763976
864000  ekin = 3.46228531249258 |  erot = 3.92564283327292 | epot = 0.761892451874504 | etot = 8.14982059764
865000  ekin = 3.45904896994329 |  erot = 3.92216510264979 | epot = 0.768606525047203 | etot = 8.14982059764029
866000  ekin = 3.45566732980035 |  erot = 3.91847955997395 | epot = 0.775673707866397 | etot = 8.14982059764069
867000  ekin = 3.45214253361369 |  erot = 3.91459226954258 | epot = 0.78308579448491 | etot = 8.14982059764118
868000  ekin = 3.44847712184251 |  erot = 3.91050987284148 | epot = 0.79083360295774 | etot = 8.14982059764173
869000  ekin = 3.44467404078934 |  erot = 3.9062395490831 | epot = 0.798907007769899 | etot = 8.14982059764234
870000  ekin = 3.44073664988311 |  erot = 3.90178897563868 | epot = 0.807294972121195 | etot = 8.14982059764298
871000  ekin = 3.43666872918436 |  erot = 3.897166288548 | epot = 0.815985579911337 | etot = 8.1498205976437
872000  ekin = 3.43247448695679 |  erot = 3.89238004326218 | epot = 0.824966067425484 | etot = 8.14982059764445
873000  ekin = 3.42815856712315 |  erot = 3.88743917574683 | epot = 0.834222854775344 | etot = 8.14982059764532
874000  ekin = 3.42372605640001 |  erot = 3.88235296404615 | epot = 0.843741577200048 | etot = 8.1498205976462
875000  ekin = 3.41918249088612 |  erot = 3.87713099038392 | epot = 0.853507116377088 | etot = 8.14982059764714
876000  ekin = 3.41453386186377 |  erot = 3.87178310385464 | epot = 0.863503631929659 | etot = 8.14982059764806
877000  ekin = 3.40978662056153 |  erot = 3.86631938373936 | epot = 0.873714593348185 | etot = 8.14982059764908
878000  ekin = 3.40494768162222 |  erot = 3.86075010346569 | epot = 0.884122812562226 | etot = 8.14982059765014
879000  ekin = 3.40002442502066 |  erot = 3.85508569521991 | epot = 0.89471047741071 | etot = 8.14982059765127
880000  ekin = 3.39502469618298 |  erot = 3.84933671521397 | epot = 0.905459186255485 | etot = 8.14982059765244
881000  ekin = 3.38995680407384 |  erot = 3.84351380960912 | epot = 0.916349983970638 | etot = 8.14982059765359
882000  ekin = 3.38482951703843 |  erot = 3.8376276811028 | epot = 0.92736339951359 | etot = 8.14982059765483
883000  ekin = 3.37965205621428 |  erot = 3.83168905619568 | epot = 0.938479485246114 | etot = 8.14982059765607
884000  ekin = 3.37443408636176 |  erot = 3.82570865317156 | epot = 0.94967785812402 | etot = 8.14982059765734
885000  ekin = 3.36918570400298 |  erot = 3.81969715084316 | epot = 0.960937742812493 | etot = 8.14982059765864
886000  ekin = 3.36391742280375 |  erot = 3.81366515814148 | epot = 0.972238016714753 | etot = 8.14982059765998
887000  ekin = 3.3586401561831 |  erot = 3.80762318465408 | epot = 0.983557256824149 | etot = 8.14982059766133
888000  ekin = 3.35336519718727 |  erot = 3.80158161224691 | epot = 0.994873788228524 | etot = 8.14982059766271
889000  ekin = 3.34810419571817 |  erot = 3.79555066793395 | epot = 1.00616573401196 | etot = 8.14982059766408
890000  ekin = 3.34286913325918 |  erot = 3.78954039818598 | epot = 1.01741106622031 | etot = 8.14982059766547
891000  ekin = 3.33767229529037 |  erot = 3.78356064489352 | epot = 1.02858765748301 | etot = 8.1498205976669
892000  ekin = 3.33252624162932 |  erot = 3.77762102321554 | epot = 1.03967333282345 | etot = 8.14982059766831
893000  ekin = 3.32744377497001 |  erot = 3.77173090155327 | epot = 1.05064592114645 | etot = 8.14982059766973
894000  ekin = 3.32243790791763 |  erot = 3.76589938388456 | epot = 1.06148330586895 | etot = 8.14982059767115
895000  ekin = 3.31752182883059 |  erot = 3.76013529467668 | epot = 1.0721634741653 | etot = 8.14982059767257
896000  ekin = 3.31270886677902 |  erot = 3.75444716656139 | epot = 1.08266456433355 | etot = 8.14982059767397
897000  ekin = 3.30801245591127 |  erot = 3.74884323090522 | epot = 1.09296491085883 | etot = 8.14982059767532
898000  ekin = 3.30344609948379 |  erot = 3.74333141133793 | epot = 1.103043086855 | etot = 8.14982059767673
899000  ekin = 3.29902333375791 |  erot = 3.73791932021429 | epot = 1.11287794370588 | etot = 8.14982059767807
900000  ekin = 3.29475769189653 |  erot = 3.73261425787887 | epot = 1.122448647904 | etot = 8.1498205976794
901000  ekin = 3.29066266791018 |  erot = 3.72742321448263 | epot = 1.13173471528793 | etot = 8.14982059768074
902000  ekin = 3.28675168060623 |  erot = 3.72235287396828 | epot = 1.14071604310752 | etot = 8.14982059768203
903000  ekin = 3.28303803739275 |  erot = 3.71740961970209 | epot = 1.14937294058844 | etot = 8.14982059768328
904000  ekin = 3.27953489768519 |  erot = 3.71259954109088 | epot = 1.15768615890845 | etot = 8.14982059768452
905000  ekin = 3.27625523556692 |  erot = 3.70792844038992 | epot = 1.1656369217289 | etot = 8.14982059768574
906000  ekin = 3.27321180127078 |  erot = 3.70340183879164 | epot = 1.1732069576245 | etot = 8.14982059768692
907000  ekin = 3.27041708098814 |  erot = 3.69902498079132 | epot = 1.1803785359086 | etot = 8.14982059768806
908000  ekin = 3.26788325448052 |  erot = 3.69480283576924 | epot = 1.18713450743942 | etot = 8.14982059768918
909000  ekin = 3.2656221499777 |  erot = 3.69074009571208 | epot = 1.19345835200049 | etot = 8.14982059769027
910000  ekin = 3.26364519589929 |  erot = 3.68684116803238 | epot = 1.19933423375963 | etot = 8.1498205976913
911000  ekin = 3.26196336904117 |  erot = 3.6831101625378 | epot = 1.2047470661133 | etot = 8.14982059769227
912000  ekin = 3.26058713902512 |  erot = 3.67955087175544 | epot = 1.2096825869126 | etot = 8.14982059769317
913000  ekin = 3.25952640901991 |  erot = 3.67616674403286 | epot = 1.21412744464128 | etot = 8.14982059769406
914000  ekin = 3.25879045299884 |  erot = 3.67296084911235 | epot = 1.21806929558364 | etot = 8.14982059769483
915000  ekin = 3.25838785009641 |  erot = 3.66993583620341 | epot = 1.2214969113957 | etot = 8.14982059769552
916000  ekin = 3.25832641695013 |  erot = 3.66709388494714 | epot = 1.22440029579886 | etot = 8.14982059769613
917000  ekin = 3.25861313924846 |  erot = 3.66443665006224 | epot = 1.22677080838596 | etot = 8.14982059769666
918000  ekin = 3.2592541040313 |  erot = 3.66196520086603 | epot = 1.22860129279976 | etot = 8.1498205976971
919000  ekin = 3.2602544345849 |  erot = 3.65967995725356 | epot = 1.22988620585894 | etot = 8.1498205976974
920000  ekin = 3.26161823001429 |  erot = 3.65758062407073 | epot = 1.23062174361255 | etot = 8.14982059769757
921000  ekin = 3.26334851174376 |  erot = 3.65566612611046 | epot = 1.23080595984341 | etot = 8.14982059769764
922000  ekin = 3.26544717926708 |  erot = 3.65393454617189 | epot = 1.23043887225859 | etot = 8.14982059769756
923000  ekin = 3.26791497743207 |  erot = 3.65238306873368 | epot = 1.2295225515316 | etot = 8.14982059769735
924000  ekin = 3.27075147738693 |  erot = 3.6510079317894 | epot = 1.22806118852068 | etot = 8.14982059769701
925000  ekin = 3.27395507303779 |  erot = 3.64980438926951 | epot = 1.22606113538922 | etot = 8.14982059769652
926000  ekin = 3.27752299447388 |  erot = 3.64876668622994 | epot = 1.22353091699206 | etot = 8.14982059769588
927000  ekin = 3.28145133932112 |  erot = 3.64788804863004 | epot = 1.22048120974392 | etot = 8.14982059769507
928000  ekin = 3.28573512241023 |  erot = 3.64716068906824 | epot = 1.21692478621569 | etot = 8.14982059769416
929000  ekin = 3.29036834351689 |  erot = 3.64657582931373 | epot = 1.2128764248625 | etot = 8.14982059769312
930000  ekin = 3.29534407228227 |  erot = 3.64612373989505 | epot = 1.20835278551466 | etot = 8.14982059769198
931000  ekin = 3.30065454878629 |  erot = 3.64579379641087 | epot = 1.20337225249359 | etot = 8.14982059769075
932000  ekin = 3.30629129765586 |  erot = 3.6455745516472 | epot = 1.19795474838638 | etot = 8.14982059768944
933000  ekin = 3.31224525307808 |  erot = 3.64545382204802 | epot = 1.19212152256191 | etot = 8.14982059768801
934000  ekin = 3.31850689167928 |  erot = 3.64541878662034 | epot = 1.18589491938698 | etot = 8.1498205976866
935000  ekin = 3.32506636994349 |  erot = 3.64545609598051 | epot = 1.17929813176109 | etot = 8.14982059768509
936000  ekin = 3.3319136626917 |  erot = 3.64555198898248 | epot = 1.17235494600938 | etot = 8.14982059768357
937000  ekin = 3.33903869912753 |  erot = 3.64569241421698 | epot = 1.16508948433757 | etot = 8.14982059768208
938000  ekin = 3.34643149307315 |  erot = 3.64586315363503 | epot = 1.15752595097245 | etot = 8.14982059768062
939000  ekin = 3.34488230540935 |  erot = 3.63589242702781 | epot = 1.16904586031675 | etot = 8.14982059275391
940000  ekin = 3.34191018315145 |  erot = 3.61808682178097 | epot = 1.1898235940921 | etot = 8.14982059902452
941000  ekin = 3.37210168281631 |  erot = 3.62870753882344 | epot = 1.14901137009127 | etot = 8.14982059173103
942000  ekin = 3.38915969165211 |  erot = 3.63408386825375 | epot = 1.1265770390026 | etot = 8.14982059890846
943000  ekin = 3.39752252277483 |  erot = 3.63359295799932 | epot = 1.11870511813324 | etot = 8.1498205989074
944000  ekin = 3.40610919314776 |  erot = 3.63307833207426 | epot = 1.11063307368438 | etot = 8.1498205989064
945000  ekin = 3.41491385028011 |  erot = 3.63252816250379 | epot = 1.10237858612157 | etot = 8.14982059890547
946000  ekin = 3.42393122302845 |  erot = 3.63193114724402 | epot = 1.0939582286322 | etot = 8.14982059890467
947000  ekin = 3.43315661029839 |  erot = 3.63127656715889 | epot = 1.08538742144664 | etot = 8.14982059890392
948000  ekin = 3.44258585345015 |  erot = 3.63055433214748 | epot = 1.07668041330566 | etot = 8.14982059890329
949000  ekin = 3.4522152939081 |  erot = 3.62975501689105 | epot = 1.06785028810357 | etot = 8.14982059890272
950000  ekin = 3.46204171776257 |  erot = 3.62886988689959 | epot = 1.05890899424003 | etot = 8.1498205989022
951000  ekin = 3.47206228936857 |  erot = 3.62789091569456 | epot = 1.04986739383868 | etot = 8.14982059890181
952000  ekin = 3.48227447609165 |  erot = 3.6268107940705 | epot = 1.04073532873931 | etot = 8.14982059890147
953000  ekin = 3.49267596642783 |  erot = 3.62562293243597 | epot = 1.03152170003745 | etot = 8.14982059890124
954000  ekin = 3.50326458373528 |  erot = 3.62432145724795 | epot = 1.02223455791776 | etot = 8.14982059890099
955000  ekin = 3.51403819776848 |  erot = 3.62290120253039 | epot = 1.01288119860199 | etot = 8.14982059890087
956000  ekin = 3.52499463610375 |  erot = 3.62135769741222 | epot = 1.00346826538479 | etot = 8.14982059890075
957000  ekin = 3.53613159739929 |  erot = 3.61968715054145 | epot = 0.994001850959854 | etot = 8.1498205989006
958000  ekin = 3.5474465682494 |  erot = 3.61788643213535 | epot = 0.98448759851576 | etot = 8.14982059890051
959000  ekin = 3.55893674517924 |  erot = 3.61595305432022 | epot = 0.974930799400952 | etot = 8.14982059890041
960000  ekin = 3.57059896309399 |  erot = 3.61388515030286 | epot = 0.965336485503471 | etot = 8.14982059890032
961000  ekin = 3.58242963124963 |  erot = 3.611681452806 | epot = 0.955709514844753 | etot = 8.14982059890039
962000  ekin = 3.59442467756255 |  erot = 3.60934127209558 | epot = 0.946054649242291 | etot = 8.14982059890042
963000  ekin = 3.60657950182697 |  erot = 3.60686447383248 | epot = 0.936376623240937 | etot = 8.14982059890039
964000  ekin = 3.61888893817066 |  erot = 3.60425145689864 | epot = 0.926680203831111 | etot = 8.14982059890041
965000  ekin = 3.63134722685512 |  erot = 3.60150313127798 | epot = 0.916970240767339 | etot = 8.14982059890043
966000  ekin = 3.64394799532208 |  erot = 3.59862089601772 | epot = 0.907251707560612 | etot = 8.14982059890041
967000  ekin = 3.65668424820684 |  erot = 3.5956066172562 | epot = 0.897529733437402 | etot = 8.14982059890044
968000  ekin = 3.66954836588275 |  erot = 3.59246260627664 | epot = 0.887809626740963 | etot = 8.14982059890036
969000  ekin = 3.68253211097302 |  erot = 3.5891915975335 | epot = 0.878096890393871 | etot = 8.14982059890039
970000  ekin = 3.69562664216478 |  erot = 3.5857967265956 | epot = 0.868397230139936 | etot = 8.14982059890032
971000  ekin = 3.70882253458658 |  erot = 3.58228150795732 | epot = 0.858716556356348 | etot = 8.14982059890025
972000  ekin = 3.72210980596232 |  erot = 3.57864981268334 | epot = 0.849060980254561 | etot = 8.14982059890022
973000  ekin = 3.73547794773094 |  erot = 3.57490584587101 | epot = 0.839436805298136 | etot = 8.14982059890008
974000  ekin = 3.74891596031875 |  erot = 3.57105412393674 | epot = 0.829850514644527 | etot = 8.14982059890002
975000  ekin = 3.76241239176738 |  erot = 3.56709945175523 | epot = 0.820308755377386 | etot = 8.14982059889999
976000  ekin = 3.77595537895245 |  erot = 3.56304689970272 | epot = 0.810818320244767 | etot = 8.14982059889994
977000  ekin = 3.78953269067288 |  erot = 3.55890178067563 | epot = 0.801386127551305 | etot = 8.14982059889981
978000  ekin = 3.80313177194478 |  erot = 3.55466962717292 | epot = 0.792019199782024 | etot = 8.14982059889972
979000  ekin = 3.81673978889471 |  erot = 3.55035616854374 | epot = 0.782724641461153 | etot = 8.14982059889961
980000  ekin = 3.83034367371267 |  erot = 3.54596730851084 | epot = 0.77350961667602 | etot = 8.14982059889952
981000  ekin = 3.84393016919115 |  erot = 3.54150910308495 | epot = 0.764381326623355 | etot = 8.14982059889946
982000  ekin = 3.85748587244382 |  erot = 3.53698773898521 | epot = 0.755346987470367 | etot = 8.1498205988994
983000  ekin = 3.8709972774615 |  erot = 3.53240951267687 | epot = 0.746413808760819 | etot = 8.14982059889919
984000  ekin = 3.88445081622454 |  erot = 3.52778081013001 | epot = 0.737588972544524 | etot = 8.14982059889907
985000  ekin = 3.897832898148 |  erot = 3.52310808739213 | epot = 0.728879613358848 | etot = 8.14982059889898
986000  ekin = 3.91112994768795 |  erot = 3.51839785205471 | epot = 0.720292799156166 | etot = 8.14982059889882
987000  ekin = 3.92432843998444 |  erot = 3.51365664567835 | epot = 0.71183551323593 | etot = 8.14982059889872
988000  ekin = 3.93741493445806 |  erot = 3.50889102722589 | epot = 0.703514637214663 | etot = 8.14982059889861
989000  ekin = 3.95037610631303 |  erot = 3.50410755753545 | epot = 0.695336935050026 | etot = 8.14982059889851
990000  ekin = 3.96319877593109 |  erot = 3.49931278485003 | epot = 0.687309038117335 | etot = 8.14982059889846
991000  ekin = 3.97586993616583 |  erot = 3.49451323140367 | epot = 0.679437431328834 | etot = 8.14982059889833
992000  ekin = 3.988376777569 |  erot = 3.48971538105027 | epot = 0.671728440278959 | etot = 8.14982059889823
993000  ekin = 4.00070671159791 |  erot = 3.48492566790772 | epot = 0.66418821939254 | etot = 8.14982059889816
994000  ekin = 4.01284739186627 |  erot = 3.48015046597876 | epot = 0.656822741053019 | etot = 8.14982059889805
995000  ekin = 4.02478673351223 |  erot = 3.47539607970077 | epot = 0.649637785684942 | etot = 8.14982059889794
996000  ekin = 4.0365129307649 |  erot = 3.47066873536913 | epot = 0.642638932763884 | etot = 8.14982059889791
997000  ekin = 4.04801447279686 |  erot = 3.46597457337402 | epot = 0.63583155272698 | etot = 8.14982059889785
998000  ekin = 4.05928015795404 |  erot = 3.46131964118717 | epot = 0.629220799756592 | etot = 8.1498205988978
999000  ekin = 4.07029910645693 |  erot = 3.45670988703451 | epot = 0.62281160540638 | etot = 8.14982059889782
1000000  ekin = 4.08106077166863 |  erot = 3.45215115419096 | epot = 0.616608673038162 | etot = 8.14982059889775
   1000000   0.18138048     0              0.038538042    0.29360434     2.6246834e-05  64000        
Loop time of 8.53795 on 2 procs for 1000000 steps with 16 atoms

Performance: 101195.286 tau/day, 117124.173 timesteps/s, 1.874 Matom-step/s
99.8% CPU use with 2 MPI tasks x no OpenMP threads

MPI task timing breakdown:
Section |  min time  |  avg time  |  max time  |%varavg| %total
---------------------------------------------------------------
Pair    | 2.2928     | 2.6606     | 3.0283     |  22.5 | 31.16
Bond    | 0.67834    | 0.71565    | 0.75297    |   4.4 |  8.38
Neigh   | 0.036163   | 0.03629    | 0.036417   |   0.1 |  0.43
Comm    | 2.0409     | 2.5219     | 3.0028     |  30.3 | 29.54
Output  | 0.042495   | 0.047829   | 0.053163   |   2.4 |  0.56
Modify  | 1.7581     | 1.76       | 1.762      |   0.1 | 20.61
Other   |            | 0.7957     |            |       |  9.32

Nlocal:              8 ave           8 max           8 min
Histogram: 2 0 0 0 0 0 0 0 0 0
Nghost:              8 ave           8 max           8 min
Histogram: 2 0 0 0 0 0 0 0 0 0
Neighs:           16.5 ave          26 max           7 min
Histogram: 1 0 0 0 0 0 0 0 0 1

Total # of neighbors = 33
Ave neighs/atom = 2.0625
Ave special neighs/atom = 3.75
Neighbor list builds = 1000
Dangerous builds = 0

Total wall time: 0:00:08
