# LAMMPS data file written by OVITO Basic 3.9.2

499 atoms
498 bonds
497 angles
1 atom types
1 bond types
1 angle types
0 ellipsoids

-50.0 50.0 xlo xhi
-50.0 50.0 ylo yhi
-50.0 50.0 zlo zhi

Masses

1 1.0

Atoms  # hybrid bond ellipsoid

1 1 3.6720747474 -3.6194758432 -6.4505222424 1 0 238.7324039657 0 0 0
2 1 3.8592290209 -3.4471688169 -5.4035084165 1 0 238.7324039657 0 0 0
3 1 4.1259811856 -3.2386686297 -4.4456230844 1 0 238.7324039657 0 0 0
4 1 4.6748644336 -3.0339567014 -3.595721315 1 0 238.7324039657 0 0 0
5 1 5.2659695854 -2.9172640212 -2.6675677911 1 0 238.7324039657 0 0 0
6 1 5.4991127213 -2.6567319878 -1.7219211522 1 0 238.7324039657 0 0 0
7 1 6.3031744326 -2.2987959205 -0.6179449271 1 0 238.7324039657 0 0 0
8 1 6.9166825231 -2.1720350919 0.5026608531 1 0 238.7324039657 0 0 0
9 1 6.9712479822 -1.9939358734 1.7933897807 1 0 238.7324039657 0 0 0
10 1 7.0308270283 -1.6917691085 2.7083904569 1 0 238.7324039657 0 0 0
11 1 7.3407357771 -1.1431872393 3.6315366954 1 0 238.7324039657 0 0 0
12 1 7.33449902 -0.723691902 4.6544084315 1 0 238.7324039657 0 0 0
13 1 6.9366867337 -0.2601505926 5.5261444286 1 0 238.7324039657 0 0 0
14 1 6.3570491007 0.2281188509 6.184350377 1 0 238.7324039657 0 0 0
15 1 5.410949124 0.8343859789 6.4370924523 1 0 238.7324039657 0 0 0
16 1 4.3114684782 1.2375259152 6.5001736817 1 0 238.7324039657 0 0 0
17 1 3.358960824 1.6134806585 6.1155214943 1 0 238.7324039657 0 0 0
18 1 2.3757075236 2.0930142002 6.0269037051 1 0 238.7324039657 0 0 0
19 1 1.4804823425 2.7208008407 5.8483998402 1 0 238.7324039657 0 0 0
20 1 0.4128903632 2.8718547489 5.3791354233 1 0 238.7324039657 0 0 0
21 1 -0.3840135983 3.3203411035 4.8055457232 1 0 238.7324039657 0 0 0
22 1 -1.4056573224 3.6145043055 4.2473180781 1 0 238.7324039657 0 0 0
23 1 -1.9449768546 3.7477602235 3.4617435136 1 0 238.7324039657 0 0 0
24 1 -2.457999891 4.0821677386 2.6658534187 1 0 238.7324039657 0 0 0
25 1 -2.9169089348 4.6240748912 1.9237061035 1 0 238.7324039657 0 0 0
26 1 -2.9810552884 5.3489222681 1.1674226152 1 0 238.7324039657 0 0 0
27 1 -2.7747099626 6.138457841 0.395131536 1 0 238.7324039657 0 0 0
28 1 -2.5958261939 6.9829307599 -0.3712081876 1 0 238.7324039657 0 0 0
29 1 -2.3797239953 7.4080757006 -1.3972802411 1 0 238.7324039657 0 0 0
30 1 -2.082364502 7.8464456691 -2.3360240304 1 0 238.7324039657 0 0 0
31 1 -1.9781997213 8.400583671 -3.1929593614 1 0 238.7324039657 0 0 0
32 1 -1.9028999975 8.6976540063 -4.4076246568 1 0 238.7324039657 0 0 0
33 1 -1.6120892105 8.7890441496 -5.2964666311 1 0 238.7324039657 0 0 0
34 1 -1.0983834934 9.1895104986 -6.2459574746 1 0 238.7324039657 0 0 0
35 1 -0.5258281487 9.8561688644 -7.2068601502 1 0 238.7324039657 0 0 0
36 1 -0.2793610818 9.7578214836 -8.3235797722 1 0 238.7324039657 0 0 0
37 1 0.0415179415 9.5769005216 -9.2809158867 1 0 238.7324039657 0 0 0
38 1 0.542300011 9.2994885023 -10.1645707357 1 0 238.7324039657 0 0 0
39 1 0.8374456321 8.8450850569 -11.1415104157 1 0 238.7324039657 0 0 0
40 1 0.7003735076 8.5228296084 -12.1509203721 1 0 238.7324039657 0 0 0
41 1 1.0686240312 7.8809709003 -13.061606587 1 0 238.7324039657 0 0 0
42 1 1.2071361612 6.7608431103 -13.4889432353 1 0 238.7324039657 0 0 0
43 1 1.3269271547 5.8311445232 -13.7794649441 1 0 238.7324039657 0 0 0
44 1 1.4080701929 4.6989829353 -13.3821298005 1 0 238.7324039657 0 0 0
45 1 1.1737598927 3.5862303931 -12.8700991103 1 0 238.7324039657 0 0 0
46 1 1.3552532964 2.6515898916 -12.0383187213 1 0 238.7324039657 0 0 0
47 1 1.5059606813 2.0613770479 -11.18470088 1 0 238.7324039657 0 0 0
48 1 1.353201363 1.4302285675 -10.2237225397 1 0 238.7324039657 0 0 0
49 1 1.6179587399 0.9351307977 -9.2216939508 1 0 238.7324039657 0 0 0
50 1 1.7558719351 0.5778391765 -8.3738767672 1 0 238.7324039657 0 0 0
51 1 2.152165905 0.2815619725 -7.3442512039 1 0 238.7324039657 0 0 0
52 1 2.5455071361 0.2282842879 -6.2819697713 1 0 238.7324039657 0 0 0
53 1 2.6703505378 -0.2483469063 -5.1797719511 1 0 238.7324039657 0 0 0
54 1 2.9625059038 -0.5204988648 -4.0499963185 1 0 238.7324039657 0 0 0
55 1 3.5147184887 0.0708385229 -3.3531949771 1 0 238.7324039657 0 0 0
56 1 4.0409135344 0.7014252535 -2.5192471481 1 0 238.7324039657 0 0 0
57 1 4.0892053134 1.0880429181 -1.4706692989 1 0 238.7324039657 0 0 0
58 1 4.1109032583 1.7960868374 -0.707920172 1 0 238.7324039657 0 0 0
59 1 4.2713986238 2.6530644505 -0.0266221607 1 0 238.7324039657 0 0 0
60 1 4.2106116204 3.5652462654 0.1864191152 1 0 238.7324039657 0 0 0
61 1 4.01532923 4.5944358016 0.8824742671 1 0 238.7324039657 0 0 0
62 1 3.5941522496 5.0940143513 1.7916522671 1 0 238.7324039657 0 0 0
63 1 3.0622512984 5.5461400524 2.562902657 1 0 238.7324039657 0 0 0
64 1 2.3546493995 6.1223532421 3.3016142483 1 0 238.7324039657 0 0 0
65 1 1.6855588073 6.861369007 3.9334214538 1 0 238.7324039657 0 0 0
66 1 1.0878508871 7.5215750096 4.4112630118 1 0 238.7324039657 0 0 0
67 1 0.5798717237 8.4829260118 4.7594534455 1 0 238.7324039657 0 0 0
68 1 0.0440971741 9.4793224688 4.7421146678 1 0 238.7324039657 0 0 0
69 1 -0.3385484889 10.5500925639 4.3367300701 1 0 238.7324039657 0 0 0
70 1 -1.0261073819 11.5743871221 4.2120366374 1 0 238.7324039657 0 0 0
71 1 -1.6082309108 12.330204717 3.6533131028 1 0 238.7324039657 0 0 0
72 1 -2.3602228975 13.1985351816 3.1122250984 1 0 238.7324039657 0 0 0
73 1 -3.1948944156 14.0103248642 2.8725872615 1 0 238.7324039657 0 0 0
74 1 -3.8493769774 14.7602946827 2.5298479538 1 0 238.7324039657 0 0 0
75 1 -4.3638030871 15.3336501833 1.5747723235 1 0 238.7324039657 0 0 0
76 1 -4.5864764133 15.9507606575 0.6869933587 1 0 238.7324039657 0 0 0
77 1 -4.8949949167 16.1588886748 -0.3855161242 1 0 238.7324039657 0 0 0
78 1 -5.3909504891 16.0544797846 -1.144065991 1 0 238.7324039657 0 0 0
79 1 -5.9798187431 15.8143469971 -2.0279712462 1 0 238.7324039657 0 0 0
80 1 -6.6006881718 15.4711166195 -3.0596553708 1 0 238.7324039657 0 0 0
81 1 -7.2163284653 15.3828811846 -3.9199069718 1 0 238.7324039657 0 0 0
82 1 -7.5804185349 15.3496884228 -4.9911635584 1 0 238.7324039657 0 0 0
83 1 -7.3295154136 15.0801719063 -6.0976285009 1 0 238.7324039657 0 0 0
84 1 -6.5331566859 14.8735849259 -6.943318292 1 0 238.7324039657 0 0 0
85 1 -5.8343667563 14.4525442203 -7.6064579217 1 0 238.7324039657 0 0 0
86 1 -5.2779306917 14.2419683001 -8.2191400091 1 0 238.7324039657 0 0 0
87 1 -4.5358305821 14.0758200804 -9.0496445153 1 0 238.7324039657 0 0 0
88 1 -3.7026530953 13.978174525 -9.7540562848 1 0 238.7324039657 0 0 0
89 1 -2.8971202374 13.9071483324 -10.379148047 1 0 238.7324039657 0 0 0
90 1 -1.7663312408 13.8428025529 -10.6556186209 1 0 238.7324039657 0 0 0
91 1 -0.7669291643 13.5457126104 -10.9472097295 1 0 238.7324039657 0 0 0
92 1 0.191525192 13.1081729149 -11.1251669952 1 0 238.7324039657 0 0 0
93 1 0.9560856638 12.3069053973 -11.1201851663 1 0 238.7324039657 0 0 0
94 1 1.7369190434 11.6604030702 -10.8808876507 1 0 238.7324039657 0 0 0
95 1 2.5711817566 11.0410790111 -10.6988061015 1 0 238.7324039657 0 0 0
96 1 3.5563713552 10.7768388625 -10.4267348679 1 0 238.7324039657 0 0 0
97 1 4.2670116427 10.3884324694 -10.1965643774 1 0 238.7324039657 0 0 0
98 1 5.034877404 9.65761106 -9.7690621435 1 0 238.7324039657 0 0 0
99 1 5.5433053127 8.8442529943 -9.1998330959 1 0 238.7324039657 0 0 0
100 1 5.9157065778 8.0431164765 -8.5144107455 1 0 238.7324039657 0 0 0
101 1 6.5163710012 7.5349222917 -7.5677953151 1 0 238.7324039657 0 0 0
102 1 6.752486302 7.2063419851 -6.6332944682 1 0 238.7324039657 0 0 0
103 1 6.832648325 7.1832706727 -5.5757648809 1 0 238.7324039657 0 0 0
104 1 6.2554369969 7.2413416116 -4.4609221236 1 0 238.7324039657 0 0 0
105 1 5.871357251 7.3379663268 -3.5209849587 1 0 238.7324039657 0 0 0
106 1 5.1831625911 7.2714098377 -2.8122866109 1 0 238.7324039657 0 0 0
107 1 4.5209573401 7.3646278122 -2.0300306492 1 0 238.7324039657 0 0 0
108 1 3.6225884288 7.7702471129 -1.5806625845 1 0 238.7324039657 0 0 0
109 1 2.8351245224 8.2745320224 -1.0103591783 1 0 238.7324039657 0 0 0
110 1 1.9257298732 8.6631194013 -0.3119698327 1 0 238.7324039657 0 0 0
111 1 1.4744872034 8.9732628253 0.7225680089 1 0 238.7324039657 0 0 0
112 1 0.8906430819 9.3762217688 1.4938578508 1 0 238.7324039657 0 0 0
113 1 0.1703033947 9.42526594 2.3658002678 1 0 238.7324039657 0 0 0
114 1 -0.7710167049 9.2029872556 2.9333664629 1 0 238.7324039657 0 0 0
115 1 -1.5003110009 9.0554863122 3.7738321236 1 0 238.7324039657 0 0 0
116 1 -2.2871427176 8.8447192831 4.6761772019 1 0 238.7324039657 0 0 0
117 1 -2.9240866072 8.2512467451 5.270360466 1 0 238.7324039657 0 0 0
118 1 -3.827153726 7.6151682317 5.73329046 1 0 238.7324039657 0 0 0
119 1 -4.6574984373 7.6960280505 6.3001474374 1 0 238.7324039657 0 0 0
120 1 -5.481385092 7.7139429015 7.0568213165 1 0 238.7324039657 0 0 0
121 1 -5.9792994927 7.9668785844 8.0395787772 1 0 238.7324039657 0 0 0
122 1 -6.7503373703 8.4588908643 8.5364812467 1 0 238.7324039657 0 0 0
123 1 -7.4339572076 9.2142882648 8.6371386198 1 0 238.7324039657 0 0 0
124 1 -7.8101494429 10.296094968 8.9999951772 1 0 238.7324039657 0 0 0
125 1 -8.1450856916 11.2826891145 9.4791750557 1 0 238.7324039657 0 0 0
126 1 -8.3939989131 12.4533417103 9.7051428386 1 0 238.7324039657 0 0 0
127 1 -8.4450039183 13.5540256256 9.7185041387 1 0 238.7324039657 0 0 0
128 1 -8.6018995596 14.6298456931 9.642395865 1 0 238.7324039657 0 0 0
129 1 -8.7777680551 15.5349552427 9.3346916613 1 0 238.7324039657 0 0 0
130 1 -8.9066969694 16.6036829945 8.7119318092 1 0 238.7324039657 0 0 0
131 1 -9.1838476005 17.2470609489 7.7314509619 1 0 238.7324039657 0 0 0
132 1 -9.4634373567 17.7474240217 6.9508909385 1 0 238.7324039657 0 0 0
133 1 -9.9436092583 18.1807968176 5.9166123461 1 0 238.7324039657 0 0 0
134 1 -10.1962376891 18.1902865585 5.0279431372 1 0 238.7324039657 0 0 0
135 1 -10.2666996344 17.8255055139 3.8129669085 1 0 238.7324039657 0 0 0
136 1 -10.2012124474 17.4173194344 2.7237181096 1 0 238.7324039657 0 0 0
137 1 -9.8532648154 17.1466747901 1.7608905036 1 0 238.7324039657 0 0 0
138 1 -9.39706809 16.7899410853 0.8266060159 1 0 238.7324039657 0 0 0
139 1 -8.9449489618 16.3333569467 -0.2404891912 1 0 238.7324039657 0 0 0
140 1 -8.4976489219 15.8592449394 -1.1681021331 1 0 238.7324039657 0 0 0
141 1 -7.6779765076 15.3125168102 -1.8052557252 1 0 238.7324039657 0 0 0
142 1 -7.1839125884 14.4651310773 -2.1248512012 1 0 238.7324039657 0 0 0
143 1 -6.8773062614 13.4822750761 -2.5044397948 1 0 238.7324039657 0 0 0
144 1 -6.8483094415 12.8433790628 -3.2466036139 1 0 238.7324039657 0 0 0
145 1 -6.9280502261 12.0838378025 -3.969749815 1 0 238.7324039657 0 0 0
146 1 -6.8846015099 11.1181235912 -4.5530653408 1 0 238.7324039657 0 0 0
147 1 -6.794070371 10.1200060173 -5.139675775 1 0 238.7324039657 0 0 0
148 1 -6.3311754532 9.0452990475 -5.4094571542 1 0 238.7324039657 0 0 0
149 1 -5.844467365 8.3152585147 -5.2083994687 1 0 238.7324039657 0 0 0
150 1 -5.4813509539 7.1561493927 -4.9892955982 1 0 238.7324039657 0 0 0
151 1 -5.0898435258 6.0862603656 -4.5019689199 1 0 238.7324039657 0 0 0
152 1 -4.9330354348 5.1187304679 -3.740324254 1 0 238.7324039657 0 0 0
153 1 -4.5852520731 4.2146146515 -2.9602846953 1 0 238.7324039657 0 0 0
154 1 -4.4005600824 3.5016438399 -2.0657733394 1 0 238.7324039657 0 0 0
155 1 -4.8516026416 3.0264284238 -1.1160717637 1 0 238.7324039657 0 0 0
156 1 -5.068275656 2.5349457059 -0.1783781325 1 0 238.7324039657 0 0 0
157 1 -5.5508932732 2.4127665992 0.8589248232 1 0 238.7324039657 0 0 0
158 1 -6.1017920578 2.3961169526 1.7112620812 1 0 238.7324039657 0 0 0
159 1 -7.1080616601 2.1644016348 2.2692174694 1 0 238.7324039657 0 0 0
160 1 -8.2964741457 2.0679086554 2.681403637 1 0 238.7324039657 0 0 0
161 1 -9.4840455034 1.7277778012 2.6771218592 1 0 238.7324039657 0 0 0
162 1 -10.5030577489 1.8976603657 2.8586186242 1 0 238.7324039657 0 0 0
163 1 -11.5052353884 2.3940098642 3.1886201483 1 0 238.7324039657 0 0 0
164 1 -12.234697971 3.3360823267 3.3154314645 1 0 238.7324039657 0 0 0
165 1 -12.9172139165 4.1453917199 3.089766813 1 0 238.7324039657 0 0 0
166 1 -13.2847174208 5.171216552 3.1375135214 1 0 238.7324039657 0 0 0
167 1 -13.4046203557 6.0264314371 3.2060142536 1 0 238.7324039657 0 0 0
168 1 -13.5827251004 7.1186310061 3.2160064747 1 0 238.7324039657 0 0 0
169 1 -13.8766601609 8.2668286117 3.1685078246 1 0 238.7324039657 0 0 0
170 1 -14.0501843039 9.3894634168 3.1725918674 1 0 238.7324039657 0 0 0
171 1 -14.2609981855 10.3350729887 2.8743455364 1 0 238.7324039657 0 0 0
172 1 -15.0600015347 11.2905996414 2.3849408821 1 0 238.7324039657 0 0 0
173 1 -15.6744459453 12.2417585568 2.1907517455 1 0 238.7324039657 0 0 0
174 1 -16.2016153374 13.0855236103 2.3475154704 1 0 238.7324039657 0 0 0
175 1 -16.6021840936 14.0848208426 2.5279804876 1 0 238.7324039657 0 0 0
176 1 -16.9784749058 15.2734300094 3.0607545099 1 0 238.7324039657 0 0 0
177 1 -17.4257352033 16.3995007283 3.4722396564 1 0 238.7324039657 0 0 0
178 1 -17.5332534515 17.3683845571 4.0336763551 1 0 238.7324039657 0 0 0
179 1 -18.1947580526 18.0154830448 4.6511150301 1 0 238.7324039657 0 0 0
180 1 -18.8740396855 18.4344561882 5.3348726799 1 0 238.7324039657 0 0 0
181 1 -19.9724600748 18.5199645455 5.4663314216 1 0 238.7324039657 0 0 0
182 1 -20.8366351575 18.3991309943 5.0276403905 1 0 238.7324039657 0 0 0
183 1 -21.4953794964 17.772193081 4.2497950482 1 0 238.7324039657 0 0 0
184 1 -21.9500130265 17.2032278688 3.7205551925 1 0 238.7324039657 0 0 0
185 1 -22.3144543487 16.4348194057 3.7535883642 1 0 238.7324039657 0 0 0
186 1 -22.8689832297 15.4870191426 3.7062098496 1 0 238.7324039657 0 0 0
187 1 -22.952077209 14.3350421329 3.5113954552 1 0 238.7324039657 0 0 0
188 1 -22.4482947389 13.348089168 3.8835620039 1 0 238.7324039657 0 0 0
189 1 -21.8337202419 12.7289218505 4.3348661871 1 0 238.7324039657 0 0 0
190 1 -20.7711455912 12.1487255065 4.5344201176 1 0 238.7324039657 0 0 0
191 1 -19.6777093882 11.6885099138 4.1689033976 1 0 238.7324039657 0 0 0
192 1 -18.5707307045 11.595007124 4.2701601392 1 0 238.7324039657 0 0 0
193 1 -17.5105019725 11.2147356052 4.4025940602 1 0 238.7324039657 0 0 0
194 1 -16.3635354654 11.1194272663 4.7773316237 1 0 238.7324039657 0 0 0
195 1 -15.3885742925 11.1953576499 5.3490576389 1 0 238.7324039657 0 0 0
196 1 -14.4663223695 11.2950403909 5.9466837315 1 0 238.7324039657 0 0 0
197 1 -13.4699330156 10.883071159 6.0131270149 1 0 238.7324039657 0 0 0
198 1 -12.6596116228 10.2656280272 5.8209025775 1 0 238.7324039657 0 0 0
199 1 -11.9785113104 9.5337889918 5.4063828249 1 0 238.7324039657 0 0 0
200 1 -10.987677366 8.5826199988 5.0206974946 1 0 238.7324039657 0 0 0
201 1 -10.3468841803 7.7302472157 4.6462349333 1 0 238.7324039657 0 0 0
202 1 -9.5148373784 6.9782432457 4.216441847 1 0 238.7324039657 0 0 0
203 1 -9.3188385969 6.2885717173 3.6952341335 1 0 238.7324039657 0 0 0
204 1 -9.2432178673 5.6514164184 2.8002615495 1 0 238.7324039657 0 0 0
205 1 -9.3746114675 4.6550124495 2.0445873415 1 0 238.7324039657 0 0 0
206 1 -9.7357269941 3.8064114174 1.4509223895 1 0 238.7324039657 0 0 0
207 1 -10.2465669779 2.8834831985 1.1502587016 1 0 238.7324039657 0 0 0
208 1 -10.9631620744 2.038021477 1.0846710079 1 0 238.7324039657 0 0 0
209 1 -11.7862300105 1.2351961768 0.8935472709 1 0 238.7324039657 0 0 0
210 1 -12.4907061275 0.5286327785 0.4905808196 1 0 238.7324039657 0 0 0
211 1 -13.4173745949 -0.0048812841 -0.0277424101 1 0 238.7324039657 0 0 0
212 1 -13.9842363854 -0.6691226981 -0.8761712959 1 0 238.7324039657 0 0 0
213 1 -14.3594023785 -1.4802001945 -1.6944870299 1 0 238.7324039657 0 0 0
214 1 -15.0725569757 -2.2137440953 -2.1320255219 1 0 238.7324039657 0 0 0
215 1 -15.718257378 -2.6422615982 -2.8529144253 1 0 238.7324039657 0 0 0
216 1 -16.2638780265 -3.1141685275 -3.6044325895 1 0 238.7324039657 0 0 0
217 1 -16.8930525151 -3.7190942765 -4.1505563501 1 0 238.7324039657 0 0 0
218 1 -17.4680674868 -3.869338263 -5.1281905695 1 0 238.7324039657 0 0 0
219 1 -18.0362325997 -4.1190633382 -5.9966783256 1 0 238.7324039657 0 0 0
220 1 -18.2858147179 -4.303891857 -7.1675089982 1 0 238.7324039657 0 0 0
221 1 -18.8995852954 -4.1081644865 -8.1115896385 1 0 238.7324039657 0 0 0
222 1 -19.2519560629 -3.801971207 -9.0557857977 1 0 238.7324039657 0 0 0
223 1 -19.7739164928 -3.7170878053 -10.1717406002 1 0 238.7324039657 0 0 0
224 1 -19.8916312742 -3.1161396996 -11.2039067466 1 0 238.7324039657 0 0 0
225 1 -19.7425617039 -2.583029238 -12.1560063655 1 0 238.7324039657 0 0 0
226 1 -19.4700466784 -2.0277225534 -12.9554032465 1 0 238.7324039657 0 0 0
227 1 -19.2267780409 -1.4242507474 -13.908888821 1 0 238.7324039657 0 0 0
228 1 -18.9493657863 -0.9064119043 -14.8507176248 1 0 238.7324039657 0 0 0
229 1 -18.447286816 -0.2916740959 -15.9022534029 1 0 238.7324039657 0 0 0
230 1 -17.8638896123 -0.0256272889 -16.5868260043 1 0 238.7324039657 0 0 0
231 1 -17.3226318769 0.5900269708 -17.244026823 1 0 238.7324039657 0 0 0
232 1 -16.7609608206 1.2265765147 -18.1274634862 1 0 238.7324039657 0 0 0
233 1 -16.2777602967 1.7553766114 -18.914810986 1 0 238.7324039657 0 0 0
234 1 -15.8034347068 2.5453326308 -19.6653631712 1 0 238.7324039657 0 0 0
235 1 -15.0048758419 3.2765307463 -20.3209352687 1 0 238.7324039657 0 0 0
236 1 -14.102273978 3.7069854785 -20.7695455942 1 0 238.7324039657 0 0 0
237 1 -12.8553511219 4.3250692173 -20.5406631625 1 0 238.7324039657 0 0 0
238 1 -11.9884315077 4.7845723606 -20.3082650693 1 0 238.7324039657 0 0 0
239 1 -11.2298622013 5.6226959975 -20.197326687 1 0 238.7324039657 0 0 0
240 1 -10.5500353566 6.2934840567 -20.3009575016 1 0 238.7324039657 0 0 0
241 1 -9.8266304546 6.8336287315 -20.2285591925 1 0 238.7324039657 0 0 0
242 1 -9.0111933706 7.6366516836 -19.8215991185 1 0 238.7324039657 0 0 0
243 1 -8.4493728024 8.3647403305 -19.4796365958 1 0 238.7324039657 0 0 0
244 1 -7.7141987584 9.0669676434 -18.851010194 1 0 238.7324039657 0 0 0
245 1 -7.4455991596 9.7199932766 -17.9884883512 1 0 238.7324039657 0 0 0
246 1 -7.4886388226 10.4536410993 -17.235859187 1 0 238.7324039657 0 0 0
247 1 -7.3901238654 11.130780133 -16.1429141567 1 0 238.7324039657 0 0 0
248 1 -7.2386854158 11.6331540032 -15.1388825572 1 0 238.7324039657 0 0 0
249 1 -7.3062358628 11.8301674738 -13.9931499028 1 0 238.7324039657 0 0 0
250 1 -7.3968720289 11.8190097603 -12.8080481037 1 0 238.7324039657 0 0 0
251 1 -7.6000343135 11.6308716204 -11.8165672627 1 1 238.7324039657 0 0 0
252 1 -7.7332492728 11.1926777684 -10.8083490573 1 1 238.7324039657 0 0 0
253 1 -7.9566069659 11.0088113954 -9.7246173035 1 1 238.7324039657 0 0 0
254 1 -8.1553104991 11.0420474148 -8.865516642 1 1 238.7324039657 0 0 0
255 1 -8.4203539883 10.9546688012 -7.8418145352 1 1 238.7324039657 0 0 0
256 1 -9.2046906171 10.7998977588 -7.0084061784 1 1 238.7324039657 0 0 0
257 1 -9.8994396691 10.5982060119 -6.3703837342 1 1 238.7324039657 0 0 0
258 1 -10.8713289635 10.2089407178 -5.9437138884 1 1 238.7324039657 0 0 0
259 1 -11.9025834899 9.8613165455 -5.6185676873 1 1 238.7324039657 0 0 0
260 1 -13.020049078 9.6540621729 -5.6367397712 1 1 238.7324039657 0 0 0
261 1 -14.1377697527 9.3094029735 -5.7866462365 1 1 238.7324039657 0 0 0
262 1 -15.0751093993 9.4038235024 -6.5359947274 1 1 238.7324039657 0 0 0
263 1 -16.1755374724 9.179795451 -7.01455731 1 1 238.7324039657 0 0 0
264 1 -17.2866220055 8.8169636064 -7.330816276 1 1 238.7324039657 0 0 0
265 1 -18.4162426015 8.642220302 -7.6982993946 1 1 238.7324039657 0 0 0
266 1 -19.2336002756 8.9275403977 -8.2597389574 1 1 238.7324039657 0 0 0
267 1 -20.0686954192 9.2982819878 -8.9931838644 1 1 238.7324039657 0 0 0
268 1 -20.6894360847 9.7174099081 -9.721067039 1 1 238.7324039657 0 0 0
269 1 -21.5857600427 9.9404707452 -10.3923827534 1 1 238.7324039657 0 0 0
270 1 -22.6624189801 9.8226884156 -10.8137338029 1 1 238.7324039657 0 0 0
271 1 -23.6886928177 9.6494942566 -11.1698206016 1 1 238.7324039657 0 0 0
272 1 -24.3134863352 8.9016267241 -11.7639677321 1 1 238.7324039657 0 0 0
273 1 -25.2728636828 8.579481535 -12.1967579841 1 1 238.7324039657 0 0 0
274 1 -26.3864621068 8.6511653428 -12.3125395657 1 1 238.7324039657 0 0 0
275 1 -27.4327616619 8.9367955418 -11.9729329478 1 1 238.7324039657 0 0 0
276 1 -28.4418979751 9.5796810411 -11.904938318 1 1 238.7324039657 0 0 0
277 1 -29.2026398336 10.648662025 -11.8445130394 1 1 238.7324039657 0 0 0
278 1 -29.6556395534 11.4820018357 -11.6596806489 1 1 238.7324039657 0 0 0
279 1 -29.6750961562 12.3608087207 -11.04522275 1 1 238.7324039657 0 0 0
280 1 -29.6826837666 13.2010239963 -10.5231742075 1 1 238.7324039657 0 0 0
281 1 -29.1441602391 14.0921159934 -10.1952945198 1 1 238.7324039657 0 0 0
282 1 -28.2659925258 14.7159962712 -9.6843148303 1 1 238.7324039657 0 0 0
283 1 -27.154272338 15.1273184854 -9.4629544523 1 1 238.7324039657 0 0 0
284 1 -26.2615100842 15.4445770042 -9.0409282804 1 1 238.7324039657 0 0 0
285 1 -25.5483658931 15.9230342339 -8.5810189847 1 1 238.7324039657 0 0 0
286 1 -24.6628206893 16.3154332809 -8.0103830544 1 1 238.7324039657 0 0 0
287 1 -23.8434830879 16.6485495664 -7.633376075 1 1 238.7324039657 0 0 0
288 1 -23.1179355018 17.5075544512 -7.5150641703 1 1 238.7324039657 0 0 0
289 1 -22.3452979079 18.1172015242 -7.4121167453 1 1 238.7324039657 0 0 0
290 1 -21.5118477354 18.7170342777 -7.4590692956 1 1 238.7324039657 0 0 0
291 1 -20.5690765677 19.2918186807 -7.4295309641 1 1 238.7324039657 0 0 0
292 1 -19.4932998984 19.5671793832 -7.1969034468 1 1 238.7324039657 0 0 0
293 1 -18.1265551496 19.813531044 -6.8139355188 1 1 238.7324039657 0 0 0
294 1 -17.0981507846 20.0935988916 -6.7797189744 1 1 238.7324039657 0 0 0
295 1 -15.918393232 20.0491083423 -6.5758791544 1 1 238.7324039657 0 0 0
296 1 -14.8188518117 20.1400915964 -6.2576439439 1 1 238.7324039657 0 0 0
297 1 -13.6266794871 20.253520118 -6.1309424712 1 1 238.7324039657 0 0 0
298 1 -12.7646444371 20.4139872883 -5.5530421048 1 1 238.7324039657 0 0 0
299 1 -11.902045659 20.2825036131 -5.0744225193 1 1 238.7324039657 0 0 0
300 1 -10.8792428462 20.167540063 -4.6313030593 1 1 238.7324039657 0 0 0
301 1 -9.6809973088 20.2668210022 -4.3928368667 1 1 238.7324039657 0 0 0
302 1 -8.6244469847 20.0548994928 -4.1394560179 1 1 238.7324039657 0 0 0
303 1 -7.516883123 20.2124675586 -4.0718621459 1 1 238.7324039657 0 0 0
304 1 -6.5055805192 20.4420531034 -4.2263970608 1 1 238.7324039657 0 0 0
305 1 -5.6322522096 20.8437891326 -4.7529246819 1 1 238.7324039657 0 0 0
306 1 -4.8706294295 21.4969345655 -5.3641490946 1 1 238.7324039657 0 0 0
307 1 -4.2794203363 22.3304615352 -5.9531433745 1 1 238.7324039657 0 0 0
308 1 -3.7362299099 23.0802140257 -6.5205703329 1 1 238.7324039657 0 0 0
309 1 -3.2546559838 23.5087377758 -7.3338882031 1 1 238.7324039657 0 0 0
310 1 -2.8196126083 23.7407964664 -8.3180811647 1 1 238.7324039657 0 0 0
311 1 -2.4392529293 23.6654758388 -9.3327431057 1 1 238.7324039657 0 0 0
312 1 -2.4083529749 23.7914236624 -10.3369999137 1 1 238.7324039657 0 0 0
313 1 -2.1815563509 24.0278172014 -11.3901741275 1 1 238.7324039657 0 0 0
314 1 -2.5401210446 24.0975839677 -12.3211643373 1 1 238.7324039657 0 0 0
315 1 -2.6114903224 24.2953482596 -13.3596220413 1 1 238.7324039657 0 0 0
316 1 -3.0214001947 24.354678045 -14.4314762062 1 1 238.7324039657 0 0 0
317 1 -3.7177430324 24.7028136465 -15.3193346246 1 1 238.7324039657 0 0 0
318 1 -4.470054783 24.7019557402 -15.800274812 1 1 238.7324039657 0 0 0
319 1 -5.0639779337 24.5059874243 -16.5570284615 1 1 238.7324039657 0 0 0
320 1 -5.5138259717 24.646023423 -17.4665848419 1 1 238.7324039657 0 0 0
321 1 -5.9423609228 24.6827053315 -18.5479430607 1 1 238.7324039657 0 0 0
322 1 -6.5689141814 24.547315591 -19.4503679385 1 1 238.7324039657 0 0 0
323 1 -7.0842226685 24.7642037544 -20.2100485057 1 1 238.7324039657 0 0 0
324 1 -8.0813840766 24.642355554 -20.7043383841 1 1 238.7324039657 0 0 0
325 1 -9.0807092786 24.5961191865 -21.1402021676 1 1 238.7324039657 0 0 0
326 1 -10.2512109807 24.1452953175 -21.3077614066 1 1 238.7324039657 0 0 0
327 1 -11.1939603873 23.8109790543 -21.0598837107 1 1 238.7324039657 0 0 0
328 1 -12.1799325907 23.1015273048 -20.8095139356 1 1 238.7324039657 0 0 0
329 1 -12.9719511441 22.4849192301 -20.523293141 1 1 238.7324039657 0 0 0
330 1 -13.9764949725 22.0151764348 -20.2341642778 1 1 238.7324039657 0 0 0
331 1 -14.7426163178 21.4754328865 -20.0211532081 1 1 238.7324039657 0 0 0
332 1 -15.2589296127 20.6052588366 -19.8805760944 1 1 238.7324039657 0 0 0
333 1 -15.6730114708 19.7220338963 -19.7603554967 1 1 238.7324039657 0 0 0
334 1 -15.8335146261 18.6366133757 -19.4876690845 1 1 238.7324039657 0 0 0
335 1 -15.987379607 17.4087530454 -19.4851865762 1 1 238.7324039657 0 0 0
336 1 -16.1559215832 16.2926367893 -19.5633508743 1 1 238.7324039657 0 0 0
337 1 -16.3700096081 15.3156771141 -19.4974329821 1 1 238.7324039657 0 0 0
338 1 -16.2774378429 14.4756491257 -19.2994112375 1 1 238.7324039657 0 0 0
339 1 -16.2497641667 13.6121602742 -18.944704925 1 1 238.7324039657 0 0 0
340 1 -16.0218218142 12.7312190993 -18.4658935032 1 1 238.7324039657 0 0 0
341 1 -15.9104334936 12.0842305109 -17.67714085 1 1 238.7324039657 0 0 0
342 1 -15.8714193766 11.4523199495 -16.836371099 1 1 238.7324039657 0 0 0
343 1 -15.9533293994 10.5855625551 -16.1956728955 1 1 238.7324039657 0 0 0
344 1 -15.8318961922 9.6210812075 -15.5396245688 1 1 238.7324039657 0 0 0
345 1 -16.1032280679 8.6160114895 -14.9548139122 1 1 238.7324039657 0 0 0
346 1 -16.0673446177 7.5479781298 -14.529735791 1 1 238.7324039657 0 0 0
347 1 -16.280789837 6.6585555282 -14.2000117493 1 1 238.7324039657 0 0 0
348 1 -16.697614473 5.8457036841 -13.8292320402 1 1 238.7324039657 0 0 0
349 1 -17.2976611749 5.0692151972 -13.301980211 1 1 238.7324039657 0 0 0
350 1 -17.9316296102 4.4255785556 -12.8262314721 1 1 238.7324039657 0 0 0
351 1 -18.6389728586 3.7176697328 -12.2788487768 1 1 238.7324039657 0 0 0
352 1 -19.4806679426 3.1193431516 -11.9741567041 1 1 238.7324039657 0 0 0
353 1 -20.2316919578 2.5763629336 -11.1652088356 1 1 238.7324039657 0 0 0
354 1 -21.210604542 2.5815637287 -10.9454304252 1 1 238.7324039657 0 0 0
355 1 -22.3027015916 2.3492839763 -11.2419608605 1 1 238.7324039657 0 0 0
356 1 -23.3346587653 2.2597810104 -11.8513549722 1 1 238.7324039657 0 0 0
357 1 -24.0494487919 2.6776257224 -12.4897212657 1 1 238.7324039657 0 0 0
358 1 -24.6340319446 3.308277691 -13.0688524817 1 1 238.7324039657 0 0 0
359 1 -25.3286348485 4.0512111715 -13.5105267807 1 1 238.7324039657 0 0 0
360 1 -25.9274573141 4.864577545 -14.1336070577 1 1 238.7324039657 0 0 0
361 1 -26.4766450136 5.6259384511 -14.3917072084 1 1 238.7324039657 0 0 0
362 1 -27.1680459312 6.2745128844 -14.7598105512 1 1 238.7324039657 0 0 0
363 1 -27.4003478449 7.2988898249 -15.1573628714 1 1 238.7324039657 0 0 0
364 1 -27.5458862174 8.3957980246 -15.5303808201 1 1 238.7324039657 0 0 0
365 1 -27.2658875526 9.3534795165 -16.1531983115 1 1 238.7324039657 0 0 0
366 1 -27.7116515077 10.1918859268 -16.5055668687 1 1 238.7324039657 0 0 0
367 1 -28.387859583 10.9574179155 -16.7754754437 1 1 238.7324039657 0 0 0
368 1 -29.2764955589 11.7196334331 -16.6414103162 1 1 238.7324039657 0 0 0
369 1 -30.0079617445 12.334626279 -16.5452442521 1 1 238.7324039657 0 0 0
370 1 -30.6596834886 13.1244426811 -16.3538630253 1 1 238.7324039657 0 0 0
371 1 -31.504947473 13.7919168653 -15.895815895 1 1 238.7324039657 0 0 0
372 1 -32.1179080531 14.6065172996 -15.3202678119 1 1 238.7324039657 0 0 0
373 1 -32.5487045669 15.2628948022 -14.6852045049 1 1 238.7324039657 0 0 0
374 1 -33.0130199596 15.8763450392 -14.0192516328 1 1 238.7324039657 0 0 0
375 1 -33.403353902 16.3448139796 -13.0843215613 1 1 238.7324039657 0 0 0
376 1 -33.4155418604 16.6539577912 -12.1698562547 1 1 238.7324039657 0 0 0
377 1 -33.1895322032 16.7232346122 -11.2110922032 1 1 238.7324039657 0 0 0
378 1 -32.5574363175 16.5330276917 -10.2683383546 1 1 238.7324039657 0 0 0
379 1 -31.7767533906 16.370041862 -9.3715005309 1 1 238.7324039657 0 0 0
380 1 -30.9291287606 16.2848727775 -8.5682538287 1 1 238.7324039657 0 0 0
381 1 -29.9341413605 16.320738204 -7.9061459933 1 1 238.7324039657 0 0 0
382 1 -29.1062667824 16.1430953568 -7.3256131059 1 1 238.7324039657 0 0 0
383 1 -28.0345390773 15.9715328265 -7.010641686 1 1 238.7324039657 0 0 0
384 1 -27.0074312944 15.7030994637 -6.5126550665 1 1 238.7324039657 0 0 0
385 1 -26.1333476392 15.0479267989 -6.233291057 1 1 238.7324039657 0 0 0
386 1 -25.0871507315 14.3517197441 -6.0256118253 1 1 238.7324039657 0 0 0
387 1 -24.4254696164 13.5270790333 -5.6740915029 1 1 238.7324039657 0 0 0
388 1 -23.8739440551 12.4860044 -5.837293532 1 1 238.7324039657 0 0 0
389 1 -23.3337423637 11.7212697701 -6.1757704602 1 1 238.7324039657 0 0 0
390 1 -22.8368571992 10.8583582389 -6.7599521499 1 1 238.7324039657 0 0 0
391 1 -22.3415846162 10.0189080333 -7.1486644963 1 1 238.7324039657 0 0 0
392 1 -21.6393865147 9.2376335953 -7.5829747516 1 1 238.7324039657 0 0 0
393 1 -20.6990235206 8.3363309677 -7.6769436391 1 1 238.7324039657 0 0 0
394 1 -20.0213186214 7.6100422558 -7.7133197302 1 1 238.7324039657 0 0 0
395 1 -19.4383761502 6.8092683732 -7.3148511629 1 1 238.7324039657 0 0 0
396 1 -18.6652634817 6.1935356568 -6.6234491817 1 1 238.7324039657 0 0 0
397 1 -18.3241558687 5.5921470565 -5.8018922639 1 1 238.7324039657 0 0 0
398 1 -18.2258831428 5.4750349736 -4.7078718732 1 1 238.7324039657 0 0 0
399 1 -18.1828440934 5.2060389743 -3.6044396876 1 1 238.7324039657 0 0 0
400 1 -18.3308932971 5.3791017648 -2.550905764 1 1 238.7324039657 0 0 0
401 1 -18.6269567038 5.6886282472 -1.7234320808 1 1 238.7324039657 0 0 0
402 1 -18.7153759714 6.5504833639 -1.3249345452 1 1 238.7324039657 0 0 0
403 1 -18.6969743563 7.4521306494 -1.0808968088 1 1 238.7324039657 0 0 0
404 1 -18.4687080906 8.5498655698 -0.983672325 1 1 238.7324039657 0 0 0
405 1 -18.3618725096 9.7162824723 -1.1691610813 1 1 238.7324039657 0 0 0
406 1 -18.5653325167 10.8216101528 -1.3134183103 1 1 238.7324039657 0 0 0
407 1 -19.1402053676 11.682717678 -1.526797774 1 1 238.7324039657 0 0 0
408 1 -19.5962363 12.6338062457 -1.6705305098 1 1 238.7324039657 0 0 0
409 1 -20.1353752273 13.5459513459 -1.9400699864 1 1 238.7324039657 0 0 0
410 1 -20.6377957513 14.6413052028 -1.5650384095 1 1 238.7324039657 0 0 0
411 1 -20.9005383804 15.5632363278 -1.1905721345 1 1 238.7324039657 0 0 0