ITEM: TIMESTEP
0
ITEM: NUMBER OF ATOMS
16
ITEM: BOX BOUNDS pp pp pp
-2.0000000000000000e+01 2.0000000000000000e+01
-2.0000000000000000e+01 2.0000000000000000e+01
-2.0000000000000000e+01 2.0000000000000000e+01
ITEM: ATOMS id mol type x y z ix iy iz vx vy vz c_quat[1] c_quat[2] c_quat[3] c_quat[4] angmomx angmomy angmomz
1 1 1 -6.133472972454683e-01 -6.574781716697657e-01  3.606522635120193e-01 0 0 0  5.386890022865587e-02  2.262922525602673e-02  2.488229114473675e-01  9.964752158482045e-01 -5.325355573323980e-02  1.139116380710251e-02 -6.380787090289707e-02  1.772010258006941e-01 -2.958853170000101e-01 -2.624137503614725e-01
2 1 2 -4.526276424735620e-01 -1.003065053434590e+00  7.258693379233350e-01 0 0 0 -3.995003075629463e-02  2.696951106370198e-01 -1.898645454819566e-01  9.369923833143513e-01  1.122071604464856e-01  6.732538499716349e-02  3.239168400846305e-01 -3.061453937596818e-02 -1.176951893148060e-01  4.007470242647321e-02
3 1 3 -9.883421085226374e-02 -1.239775807128058e+00  1.069462285786361e+00 0 0 0 -2.078453529520138e-01 -1.362872235767304e-01 -6.062477950201746e-02  7.979649320918270e-01  1.447309635452787e-01  1.837414269936639e-01  5.554673737937029e-01 -3.676034584820381e-02 -6.308707793373186e-02 -1.479860157608762e-01
4 1 4  2.937771854299740e-01 -1.257975092489986e+00  1.425891608660695e+00 0 0 0 -2.396982418131700e-01 -5.624721730878831e-01  3.247442290503672e-02  5.660864821344559e-01  1.468827549948105e-01  9.873742533340191e-02  8.051226439917721e-01 -1.652364596501651e-01  2.860623077030974e-01  3.354351975310588e-01
5 1 1  6.286896795685166e-01 -1.018334339511973e+00  1.768934633967284e+00 0 0 0 -1.611489735682835e-01 -2.288969747076015e-01 -1.355332496264956e-01  2.533023785125306e-01  1.206231316167983e-01  8.583012223905846e-02  9.559922359911086e-01  7.151030852881342e-02 -9.415592891043179e-02  1.342288153931229e-01
6 1 2  7.901522619067975e-01 -6.766341805565261e-01  2.154016070549574e+00 0 0 0 -4.701706588477693e-02  1.921671558511004e-01  1.458824279129722e-01 -3.855807343534716e-02  8.405913137017908e-02  2.236505169306371e-02  9.954632800204194e-01  9.218622989776322e-02 -5.640128930702024e-01  9.287105657777776e-02
7 1 3  7.115777184886873e-01 -4.019557932514353e-01  2.569568683291529e+00 0 0 0  5.098438305112513e-02 -3.845955552200959e-02 -1.424419628574967e-01 -4.559284433024802e-01  1.004550065061007e-01 -5.252474529475878e-02  8.827679181910482e-01  3.479046835475834e-01  4.244922695910593e-01 -1.358288260435836e-01
8 1 4  4.697331037700536e-01 -3.025169796710685e-01  3.066800711751920e+00 0 0 0  3.782797134841193e-01 -4.953992506010833e-02  1.626392045834847e-01  7.680212215404908e-01 -9.582139884533597e-03  3.658677589040892e-02 -6.393066507464399e-01  4.428876596361290e-02  7.868414126013584e-02 -1.271360044432503e-01
9 2 1  4.056113349449895e-01 -1.443775499211899e+00  3.059072650334112e+00 0 0 0  4.912038408665491e-02  4.126064731871670e-02  1.222385633449523e-02 -2.329997575451234e-01  6.886863952313410e-01  6.747873944883376e-01 -1.268232401684158e-01  3.282916621721876e-02 -1.267054709525600e-04  1.559787854176960e-01
10 2 2 -3.202842905928804e-02 -1.294752097116472e+00  2.720107115139218e+00 0 0 0  1.939216183073483e-01  1.107523548538194e-01 -4.050505160199710e-02 -2.466206187190723e-01  8.744456399178389e-01  3.937083608782400e-01 -1.397026120939516e-01 -1.700813500181381e-01 -4.563093565840761e-01 -3.031851362703951e-01
11 2 3 -3.161385511231423e-01 -9.084141759061595e-01  2.412520787178206e+00 0 0 0 -3.513607339206460e-01 -1.882241906753569e-01  3.614793819905130e-01 -8.747590085090901e-02  9.773676023882290e-01  1.449354911309558e-01 -1.268630757266878e-01 -3.708221604627426e-01 -4.910838182594122e-01  9.435948331955418e-02
12 2 4 -3.893939125182087e-01 -4.866605488242826e-01  2.006177777000424e+00 0 0 0 -1.188642917357977e-01  2.235528245655188e-01  9.265586122144348e-03 -3.181169300779214e-02  9.634374984140114e-01 -2.442360692534372e-01 -1.054748563087919e-01 -2.823010018885836e-01  1.027648566082889e-01  1.017523347678070e-01
13 3 1 -6.232643040853247e-02 -7.155965522127516e-02  1.559320605273072e+00 0 0 0 -1.446616296238799e-01 -1.155205990978724e-01  1.331477187595642e-01 -3.278607069657226e-02  7.922941528811774e-01 -6.084214170523914e-01 -3.191282109962716e-02 -2.549872189037434e-01  2.754663721641154e-01  5.806416868630132e-02
14 3 2  1.788409039091334e-01 -5.516721349427200e-02  1.021273149730916e+00 0 0 0  5.154712003586254e-02 -3.661102651077563e-01 -6.630782880801242e-02  4.718868628834144e-02  6.316396208287697e-01 -7.737349519945346e-01  1.178309584462780e-02 -1.199984717331652e-01  6.844768922886051e-02  2.161595932308759e-01
15 3 3  4.513439961906016e-01 -2.379560738327449e-01  5.957328539616000e-01 0 0 0 -2.021424496209139e-01  2.334122693355961e-01  8.133374252278069e-03 -5.869980642620334e-02 -3.422935820341442e-01  9.376740835056506e-01  1.251996587850869e-02 -1.701391112413525e-01  1.870292260510287e-02 -2.682954134361106e-01
16 3 4  5.077649359807950e-01 -5.565625134533541e-01  1.655875784458836e-01 0 0 0 -1.920213116286801e-01 -8.105295741355378e-02 -4.693508108850740e-02 -8.582818143150042e-02  8.707732197394232e-04  9.939540921464659e-01 -6.846917358531610e-02  1.733210765264759e-02 -3.287658886280769e-01  1.085334141225924e-01
ITEM: TIMESTEP
1000
ITEM: NUMBER OF ATOMS
16
ITEM: BOX BOUNDS pp pp pp
-2.0000000000000000e+01 2.0000000000000000e+01
-2.0000000000000000e+01 2.0000000000000000e+01
-2.0000000000000000e+01 2.0000000000000000e+01
ITEM: ATOMS id mol type x y z ix iy iz vx vy vz c_quat[1] c_quat[2] c_quat[3] c_quat[4] angmomx angmomy angmomz
1 1 1 -6.128549084994225e-01 -6.572778389823223e-01  3.630256772532603e-01 0 0 0  4.461491400477493e-02  1.742890088413619e-02  2.254011142298916e-01  9.964225240770437e-01 -5.088418648846166e-02  8.586539099320422e-03 -6.692700817784118e-02  1.959718223093666e-01 -2.454026304301065e-01 -2.580696736957027e-01
2 1 2 -4.530727282117176e-01 -1.000382591666103e+00  7.238959244644347e-01 0 0 0 -4.908356591882385e-02  2.664868254930021e-01 -2.040896849886273e-01  9.369690975662326e-01  1.113064318881066e-01  6.645782259899859e-02  3.244736449107360e-01 -5.984838699931033e-02 -8.584421478051756e-02  4.544374818607778e-02
3 1 3 -1.009360924193371e-01 -1.241078284006360e+00  1.069072496831927e+00 0 0 0 -2.124930461224970e-01 -1.242191244384541e-01 -1.729442794334734e-02  7.990976473771727e-01  1.445351449848824e-01  1.827303982389257e-01  5.542221065420528e-01  3.890900647661630e-02 -1.011528599540827e-01 -1.535694981111257e-01
4 1 4  2.913983187386574e-01 -1.263500392179045e+00  1.426135550537281e+00 0 0 0 -2.359580561963777e-01 -5.423866236588736e-01  1.656301957307007e-02  5.629475233905785e-01  1.479088060401707e-01  1.028105725200879e-01  8.066244833764205e-01 -1.977715593935517e-01  2.746751189460161e-01  3.384312762192762e-01
5 1 1  6.271447077545202e-01 -1.020673019390268e+00  1.767554451936225e+00 0 0 0 -1.479016478347896e-01 -2.385790631812311e-01 -1.400580924921785e-01  2.518063900872015e-01  1.196777060024928e-01  8.494980393144838e-02  9.565847162741217e-01  7.368282960055153e-02 -9.153613972993453e-02  1.364387840960928e-01
6 1 2  7.897750762208299e-01 -6.747406216380959e-01  2.155542245314490e+00 0 0 0 -2.887097456346445e-02  1.861434901332975e-01  1.602107918336357e-01 -3.969347977661128e-02  7.777232454548789e-02  2.166678114001618e-02  9.959450003855864e-01  8.912501352587188e-02 -5.212694644858319e-01  1.148119936635774e-01
7 1 3  7.121272467147507e-01 -4.022657608465940e-01  2.568261988793389e+00 0 0 0  5.917049193327156e-02 -2.345036537959726e-02 -1.185592430238148e-01 -4.546762497965948e-01  1.029346015813514e-01 -5.832515883814238e-02  8.827639273977492e-01  3.243434566248792e-01  4.284229754540609e-01 -1.345005661657741e-01
8 1 4  4.735330501365115e-01 -3.030012684529704e-01  3.068421888897190e+00 0 0 0  3.816379389278166e-01 -4.730160514145981e-02  1.615095266791710e-01  7.670129636168578e-01 -9.812108077319564e-03  3.759761600682231e-02 -6.404539448308267e-01  2.863426166310261e-02  8.662887565196632e-02 -1.387479049221417e-01
9 2 1  4.060804714467412e-01 -1.443400459125490e+00  3.059079392798514e+00 0 0 0  4.474144958083643e-02  3.374763270620174e-02 -1.085834698849447e-02 -2.329171817761302e-01  6.874205645846551e-01  6.760548809601967e-01 -1.270919027691125e-01  5.155664921286010e-03 -9.346606888394663e-04  1.571306350902962e-01
10 2 2 -3.011373445836842e-02 -1.293648272875146e+00  2.719688755685454e+00 0 0 0  1.886684378340034e-01  1.099467674460758e-01 -4.328251177748830e-02 -2.431705298992962e-01  8.770016610713506e-01  3.917513308328761e-01 -1.351557422282074e-01 -2.011306247927750e-01 -4.497260577796618e-01 -2.805306323816485e-01
11 2 3 -3.197730113472930e-01 -9.102607979295817e-01  2.416065979199215e+00 0 0 0 -3.749596707199743e-01 -1.807578347520302e-01  3.462650391967326e-01 -8.242192103822764e-02  9.782747516144165e-01  1.458383917514058e-01 -1.221323084915835e-01 -3.638396174886686e-01 -4.732767006032197e-01  7.597961796955181e-02
12 2 4 -3.906468304434839e-01 -4.844636498215845e-01  2.006356292219857e+00 0 0 0 -1.316316360580002e-01  2.155283041321216e-01  2.626359800933574e-02 -2.828175201100638e-02  9.636994481130001e-01 -2.434741861433328e-01 -1.058481784998160e-01 -2.811216940084585e-01  1.011148272596420e-01  1.038854037959411e-01
13 3 1 -6.373257393983485e-02 -7.277550693795157e-02  1.560548510320078e+00 0 0 0 -1.366570238623866e-01 -1.277543828870248e-01  1.121109039087105e-01 -2.857460753479559e-02  7.927125194028302e-01 -6.080428764152943e-01 -3.277520140083534e-02 -2.342391180080882e-01  2.850893885139463e-01  6.651004846481899e-02
14 3 2  1.793743860241679e-01 -5.886368855988326e-02  1.020588498668498e+00 0 0 0  5.500968368119262e-02 -3.729572089230165e-01 -7.064650053398724e-02  4.848918241976891e-02  6.335341487170515e-01 -7.720947110000241e-01  1.237088692909737e-02 -8.974401399693051e-02  5.944694960323126e-02  2.212924210510376e-01
15 3 3  4.493556544100128e-01 -2.356149586378648e-01  5.958942523022062e-01 0 0 0 -1.953938332709640e-01  2.346469277835781e-01  2.384595330911088e-02 -5.968009796873312e-02 -3.392719921963001e-01  9.387312045352526e-01  1.079476027477746e-02 -2.025452454649994e-01  3.390648089037881e-02 -2.678056304208397e-01
16 3 4  5.058657347592423e-01 -5.573670264889179e-01  1.651747711375452e-01 0 0 0 -1.878814237253078e-01 -7.961691664780270e-02 -3.552475365034699e-02 -8.205630111903545e-02 -1.365153805962809e-04  9.942807307770023e-01 -6.835622294834270e-02  2.041036852486702e-02 -3.164695478783384e-01  1.086399442951415e-01
ITEM: TIMESTEP
2000
ITEM: NUMBER OF ATOMS
16
ITEM: BOX BOUNDS pp pp pp
-2.0000000000000000e+01 2.0000000000000000e+01
-2.0000000000000000e+01 2.0000000000000000e+01
-2.0000000000000000e+01 2.0000000000000000e+01
ITEM: ATOMS id mol type x y z ix iy iz vx vy vz c_quat[1] c_quat[2] c_quat[3] c_quat[4] angmomx angmomy angmomz
1 1 1 -6.124549454363805e-01 -6.571293641240719e-01  3.651512106437441e-01 0 0 0  3.537500654787666e-02  1.229746626920130e-02  1.992530411224963e-01  9.963567315271074e-01 -4.834003732256714e-02  6.383018506387912e-03 -6.996971778576631e-02  2.145174725278182e-01 -1.930174555003449e-01 -2.548390677174445e-01
2 1 2 -4.536090623565781e-01 -9.977416569655891e-01  7.218039551672116e-01 0 0 0 -5.814317910576825e-02  2.613785471531523e-01 -2.133961498998035e-01  9.369390436399732e-01  1.102180539969371e-01  6.601785965376807e-02  3.250213089673907e-01 -8.515755794889231e-02 -5.851541476491181e-02  4.934861824936791e-02
3 1 3 -1.030835340258441e-01 -1.242260232842532e+00  1.069116017239820e+00 0 0 0 -2.169782138593972e-01 -1.121656834927846e-01  2.592291601193191e-02  8.002134557947145e-01  1.448001152010643e-01  1.808815636216893e-01  5.531484536221827e-01  1.138493405981068e-01 -1.389052819111878e-01 -1.581277660738223e-01
4 1 4  2.890603875202568e-01 -1.268819083180394e+00  1.426228189318945e+00 0 0 0 -2.315093055169666e-01 -5.211779040039021e-01  2.245983206996526e-03  5.598456764960403e-01  1.486279869011976e-01  1.070929740301240e-01  8.080925905685387e-01 -2.261708228192364e-01  2.637141317247283e-01  3.377788707932054e-01
5 1 1  6.257301079626957e-01 -1.023100409332343e+00  1.766142574971342e+00 0 0 0 -1.351146442763125e-01 -2.466085542771865e-01 -1.418550120566264e-01  2.502791437399287e-01  1.187839567022001e-01  8.405626814357636e-02  9.571756712457505e-01  7.660508279506606e-02 -8.562578121244255e-02  1.383136940062810e-01
6 1 2  7.895661540322128e-01 -6.729188440038817e-01  2.157235414091374e+00 0 0 0 -1.332415825308838e-02  1.778620316610755e-01  1.790660188836138e-01 -4.108265035629029e-02  7.203472651884782e-02  2.101028482736073e-02  9.963341718251618e-01  8.425134276336244e-02 -4.672666676708550e-01  1.359149583155027e-01
7 1 3  7.127655877593700e-01 -4.024232184371619e-01  2.567203388594899e+00 0 0 0  6.869352767969363e-02 -7.965670815627350e-03 -9.290877348838468e-02 -4.534014220988990e-01  1.055803966556330e-01 -6.388934294454758e-02  8.827219732955838e-01  2.985487001830585e-01  4.321625741324767e-01 -1.304465858082047e-01
8 1 4  4.773643596804447e-01 -3.034625568694876e-01  3.070029249258821e+00 0 0 0  3.845455159609114e-01 -4.492703587166428e-02  1.598835408740095e-01  7.659093310979861e-01 -1.023033798901726e-02  3.856979858185203e-02 -6.417091298703964e-01  1.397914392845091e-02  9.494802740459247e-02 -1.508889414638847e-01
9 2 1  4.065069643604334e-01 -1.443100604710566e+00  3.058856020514768e+00 0 0 0  4.060251446946214e-02  2.621728428329027e-02 -3.377911951485285e-02 -2.326092685730705e-01  6.862238825415622e-01  6.772864630016135e-01 -1.275647217621305e-01 -2.173526847889441e-02 -2.291875951097693e-03  1.568013141894211e-01
10 2 2 -2.826163438358300e-02 -1.292554536827125e+00  2.719239721792980e+00 0 0 0  1.814435900453231e-01  1.087278287318794e-01 -4.658324593780587e-02 -2.393882018154022e-01  8.794855927326086e-01  3.899534355897146e-01 -1.308995763138252e-01 -2.337308001248525e-01 -4.397139231295242e-01 -2.539727624753308e-01
11 2 3 -3.236265758263296e-01 -9.120230198296981e-01  2.419422293272535e+00 0 0 0 -3.952150038374626e-01 -1.713992847955050e-01  3.239240687565808e-01 -7.749656795165884e-02  9.791278179044807e-01  1.465162898253023e-01 -1.176264212545469e-01 -3.585661620695104e-01 -4.454450923404354e-01  5.788025352737202e-02
12 2 4 -3.920244183277112e-01 -4.823561029007402e-01  2.006699012759531e+00 0 0 0 -1.437623075521841e-01  2.056681854829988e-01  4.205352507306082e-02 -2.477078683731118e-02  9.639539347143176e-01 -2.426881968113915e-01 -1.062151542703817e-01 -2.788830539489724e-01  1.009694213350391e-01  1.050902390462570e-01
13 3 1 -6.506143763856609e-02 -7.411654016505627e-02  1.561556772749597e+00 0 0 0 -1.292114486515259e-01 -1.405275490582238e-01  8.926070223159040e-02 -2.449468929934079e-02  7.931594917683497e-01 -6.075770424652742e-01 -3.388463195982584e-02 -2.103988661593809e-01  2.950225648493873e-01  7.362354496039890e-02
14 3 2  1.799384401160358e-01 -6.262191567916649e-02  1.019860222967738e+00 0 0 0  5.767457597325722e-02 -3.784712014867958e-01 -7.498328784120362e-02  4.948443671644404e-02  6.354792558465360e-01 -7.704250430944055e-01  1.275377922705694e-02 -5.853303566427458e-02  5.040836160623360e-02  2.251298167026934e-01
15 3 3  4.474384994243642e-01 -2.332665045508427e-01  5.962028194319154e-01 0 0 0 -1.879309756223055e-01  2.348707625515573e-01  3.747370049984890e-02 -6.092877286850393e-02 -3.362380925995305e-01  9.397629324327287e-01  8.789797904775179e-03 -2.316485419104623e-01  4.618850786331579e-02 -2.653994402333595e-01
16 3 4  5.040059944020494e-01 -5.581504898838408e-01  1.648783774377566e-01 0 0 0 -1.841334563122038e-01 -7.687349876254831e-02 -2.372152258007630e-02 -7.843223016954337e-02 -1.143445049724585e-03  9.945824607193170e-01 -6.821148461629019e-02  2.254882039260780e-02 -3.029456546004707e-01  1.063040275423903e-01
ITEM: TIMESTEP
3000
ITEM: NUMBER OF ATOMS
16
ITEM: BOX BOUNDS pp pp pp
-2.0000000000000000e+01 2.0000000000000000e+01
-2.0000000000000000e+01 2.0000000000000000e+01
-2.0000000000000000e+01 2.0000000000000000e+01
ITEM: ATOMS id mol type x y z ix iy iz vx vy vz c_quat[1] c_quat[2] c_quat[3] c_quat[4] angmomx angmomy angmomz
1 1 1 -6.121476131193757e-01 -6.570308799240714e-01  3.670016339441481e-01 0 0 0  2.607280708513476e-02  7.467856738981262e-03  1.703724142535026e-01  9.962799406190097e-01 -4.562701056820778e-02  4.802061531239531e-03 -7.294789943405770e-02  2.328239761065342e-01 -1.389465176913913e-01 -2.523788203423633e-01
2 1 2 -4.542342925195388e-01 -9.951614689989721e-01  7.196477337767940e-01 0 0 0 -6.681502966399648e-02  2.543386877692316e-01 -2.167903238777296e-01  9.369065227629226e-01  1.089723523876642e-01  6.593137782148915e-02  3.255522192182814e-01 -1.054872172552288e-01 -3.693110439016911e-02  5.138535631601173e-02
3 1 3 -1.052754778484238e-01 -1.243321413919686e+00  1.069588308952772e+00 0 0 0 -2.214087018479000e-01 -1.000592270011767e-01  6.834523203178487e-02  8.013020211523517e-01  1.455148262185994e-01  1.782095732381047e-01  5.522516222285088e-01  1.868646876154271e-01 -1.760583091793465e-01 -1.611455629620057e-01
4 1 4  2.867705129170012e-01 -1.273920725109667e+00  1.426186357383827e+00 0 0 0 -2.263468432680741e-01 -4.990009454961853e-01 -1.030599618498482e-02  5.568075432917796e-01  1.490782536522988e-01  1.115417536761419e-01  8.095056955996077e-01 -2.499961950313472e-01  2.533198583097788e-01  3.334150546215383e-01
5 1 1  6.244401433244523e-01 -1.025599119136937e+00  1.764726646068571e+00 0 0 0 -1.230075453660475e-01 -2.528179172289760e-01 -1.408669058476441e-01  2.487206744346196e-01  1.179806939869535e-01  8.315018198305968e-02  9.577602148718274e-01  8.025816480427815e-02 -7.642782572371615e-02  1.397652029448510e-01
6 1 2  7.895009663231513e-01 -6.711898257189058e-01  2.159134006165303e+00 0 0 0 -6.443735334422198e-05  1.676467157102044e-01  2.010540092909725e-01 -4.271445528493894e-02  6.696336265454242e-02  2.040778589806818e-02  9.966317803714900e-01  7.773768378855390e-02 -4.045001656068290e-01  1.557211467892194e-01
7 1 3  7.135044791593741e-01 -4.024236112183056e-01  2.566408033823030e+00 0 0 0  7.922522767421367e-02  7.958769566221996e-03 -6.599097715951682e-02 -4.521273202630721e-01  1.083996812077294e-01 -6.919259311016840e-02  8.826340014096935e-01  2.711942043717949e-01  4.352480042243703e-01 -1.241083524453999e-01
8 1 4  4.812223314614218e-01 -3.038991095555863e-01  3.071618038454805e+00 0 0 0  3.869646034902126e-01 -4.234283633352126e-02  1.578006480432822e-01  7.647053371980361e-01 -1.083012034469138e-02  3.951382579374019e-02 -6.430762888843744e-01  3.614657729460581e-04  1.036265308088333e-01 -1.636291508539198e-01
9 2 1  4.068935321525453e-01 -1.442876290105540e+00  3.058404763033334e+00 0 0 0  3.676653766649846e-02  1.863407822029088e-02 -5.641372796294492e-02 -2.320809484600818e-01  6.851064188474023e-01  6.784728803097522e-01 -1.282270599372288e-01 -4.770130602575758e-02 -4.213393291765153e-03  1.549598969886103e-01
10 2 2 -2.649060433761851e-02 -1.291475269354810e+00  2.718756455081468e+00 0 0 0  1.724959996586362e-01  1.070422569344786e-01 -5.007554591601284e-02 -2.352703455175795e-01  8.818806429144801e-01  3.883431948777348e-01 -1.269801526418044e-01 -2.672821973017939e-01 -4.268323204513089e-01 -2.242137277467108e-01
11 2 3 -3.276670577692666e-01 -9.136836130372826e-01  2.422525473347688e+00 0 0 0 -4.123949987076759e-01 -1.604886560342649e-01  2.958867745517062e-01 -7.269794688896505e-02  9.799211636605702e-01  1.469631690362960e-01 -1.134519654966480e-01 -3.545388752994049e-01 -4.095614459105833e-01  3.997325228974059e-02
12 2 4 -3.935193053422075e-01 -4.803566608363959e-01  2.007192410233511e+00 0 0 0 -1.550632890820886e-01  1.938965711088480e-01  5.636092021033966e-02 -2.128780335353556e-02  9.641961521837752e-01 -2.418878212377283e-01 -1.065968643030753e-01 -2.754725490282654e-01  1.026061732723651e-01  1.053144718910348e-01
13 3 1 -6.631873637244293e-02 -7.558728094795859e-02  1.562328588803438e+00 0 0 0 -1.223449823829149e-01 -1.536680174307923e-01  6.487128975557799e-02 -2.057133843631784e-02  7.936264060921558e-01 -6.070341663346991e-01 -3.526284858777334e-02 -1.839070623671545e-01  3.051784696474113e-01  7.949362240556870e-02
14 3 2  1.805254626198514e-01 -6.642885927500961e-02  1.019089897019487e+00 0 0 0  5.961476776028458e-02 -3.827085721687781e-01 -7.899821725264561e-02  5.016986084217590e-02  6.374643244707291e-01 -7.687360707124311e-01  1.292569826996013e-02 -2.698726947405735e-02  4.152045411482336e-02  2.276513362613927e-01
15 3 3  4.455989072269744e-01 -2.309211043237659e-01  5.966349771946825e-01 0 0 0 -1.799063580859977e-01  2.340260139436231e-01  4.847881184745328e-02 -6.239491715776715e-02 -3.332147737845291e-01  9.407614715401352e-01  6.530123294361807e-03 -2.566561507928487e-01  5.478681874790643e-02 -2.610983652393580e-01
16 3 4  5.021817597638680e-01 -5.589007916039115e-01  1.647004807835526e-01 0 0 0 -1.807757198876289e-01 -7.301905472926988e-02 -1.187202044176767e-02 -7.496852134297376e-02 -2.123538037920220e-03  9.948594688298686e-01 -6.804299136135540e-02  2.384975621304459e-02 -2.887564836419587e-01  1.018208302371894e-01
ITEM: TIMESTEP
4000
ITEM: NUMBER OF ATOMS
16
ITEM: BOX BOUNDS pp pp pp
-2.0000000000000000e+01 2.0000000000000000e+01
-2.0000000000000000e+01 2.0000000000000000e+01
-2.0000000000000000e+01 2.0000000000000000e+01
ITEM: ATOMS id mol type x y z ix iy iz vx vy vz c_quat[1] c_quat[2] c_quat[3] c_quat[4] angmomx angmomy angmomz
1 1 1 -6.119339109791265e-01 -6.569784921960667e-01  3.685494983370412e-01 0 0 0  1.665716975353464e-02  3.073693607748308e-03  1.387547974832436e-01  9.961933264132207e-01 -4.275115238938522e-02  3.863060820781725e-03 -7.587010043644861e-02  2.508698823071840e-01 -8.335830701390042e-02 -2.505200192993445e-01
2 1 2 -4.549432190013725e-01 -9.926611514580709e-01  7.174904560085291e-01 0 0 0 -7.484635127920293e-02  2.454218874367733e-01 -2.135031095129337e-01  9.368764937401599e-01  1.076060274938930e-01  6.610821201585587e-02  3.260568702361512e-01 -1.199766205523814e-01 -2.207631951143296e-02  5.127310014965694e-02
3 1 3 -1.075117872610136e-01 -1.244261215922827e+00  1.070477893737637e+00 0 0 0 -2.258622934152782e-01 -8.789464606132924e-02  1.092559030240130e-01  8.023493904213966e-01  1.466574292648604e-01  1.747401096270477e-01  5.515368965167816e-01  2.566577217838004e-01 -2.122788877458849e-01 -1.621721970562906e-01
4 1 4  2.845358107964486e-01 -1.278796324782052e+00  1.426028413645245e+00 0 0 0 -2.204766490141843e-01 -4.759901010187903e-01 -2.095517168935813e-02  5.538594091797291e-01  1.493013342509046e-01  1.161109152980197e-01  8.108434631928887e-01 -2.689071645744110e-01  2.435930374665558e-01  3.253259583031732e-01
5 1 1  6.232671066962451e-01 -1.028150262714920e+00  1.763334396486183e+00 0 0 0 -1.117539231695484e-01 -2.570773581211274e-01 -1.371342449639618e-01  2.471321744943641e-01  1.173059171601696e-01  8.223232313003168e-02  9.583333737074675e-01  8.456280873150665e-02 -6.407991581748347e-02  1.407158614303186e-01
6 1 2  7.895584210763333e-01 -6.695712975902949e-01  2.161262269272698e+00 0 0 0  1.125980084634789e-02  1.558133521749615e-01  2.247827384874458e-01 -4.457285581119864e-02  6.264634910316413e-02  1.986975176978164e-02  9.968419576008455e-01  6.983247803698357e-02 -3.354377657925469e-01  1.739064444258027e-01
7 1 3  7.143523629125418e-01 -4.022626169808273e-01  2.565886233324000e+00 0 0 0  9.043882003898486e-02  2.431169808083295e-02 -3.827272267534169e-02 -4.508736644689156e-01  1.113917044986646e-01 -7.421501475412465e-02  8.824947356456575e-01  2.429140024142553e-01  4.372526022562189e-01 -1.159708781671902e-01
8 1 4  4.851019176753413e-01 -3.043084946773445e-01  3.073183820328024e+00 0 0 0  3.888636877020044e-01 -3.948324366443134e-02  1.552845835163696e-01  7.633953759590953e-01 -1.160420532146919e-02  4.044045041986679e-02 -6.445598594024973e-01 -1.215961243151194e-02  1.126494162285699e-01 -1.770236700712831e-01
9 2 1  4.072434987816635e-01 -1.442728204115801e+00  3.057729151473537e+00 0 0 0  3.329145004352779e-02  1.096675285799797e-02 -7.862625045854654e-02 -2.313382042127834e-01  6.840779708299451e-01  6.796048321118662e-01 -1.290629197987994e-01 -7.258382775523629e-02 -6.709811154885463e-03  1.515868586303547e-01
10 2 2 -2.481664394644013e-02 -1.290415493509753e+00  2.718238600777186e+00 0 0 0  1.620689001307795e-01  1.048156392097909e-01 -5.345177437816427e-02 -2.308181889873515e-01  8.841724966630565e-01  3.869447469219255e-01 -1.234330693402040e-01 -3.012242364308980e-01 -4.116346728394109e-01 -1.919671644173960e-01
11 2 3 -3.318652421653137e-01 -9.152286869762604e-01  2.425325873294240e+00 0 0 0 -4.268026535857437e-01 -1.483441960871228e-01  2.635951116445987e-01 -6.802620795074844e-02  9.806526018135691e-01  1.471754109304358e-01 -1.096918775733949e-01 -3.513050809682116e-01 -3.676438411193016e-01  2.215117055807522e-02
12 2 4 -3.951224348321715e-01 -4.784847094976774e-01  2.007820681673158e+00 0 0 0 -1.653911891782135e-01  1.801648206018922e-01  6.900685485457772e-02 -1.784221654546035e-02  9.644209886379782e-01 -2.410832889892444e-01 -1.070171002850398e-01 -2.708412909022786e-01  1.061829759093659e-01  1.044905668996724e-01
13 3 1 -6.751024498120811e-02 -7.719058842212428e-02  1.562850123647183e+00 0 0 0 -1.160500174097544e-01 -1.670154283257753e-01  3.926049563772194e-02 -1.682589742886056e-02  7.941056523268569e-01 -6.064235021948157e-01 -3.692747085876329e-02 -1.552769757603044e-01  3.154521548197485e-01  8.424597315759778e-02
14 3 2  1.811285413279523e-01 -7.027195987223030e-02  1.018282643964922e+00 0 0 0  6.089675928546820e-02 -3.857068694945030e-01 -8.229346051339857e-02  5.054748059371575e-02  6.394779087794008e-01 -7.670377637083702e-01  1.288508572011966e-02  4.151635854049932e-03  3.298293446486236e-02  2.288082339243148e-01
15 3 3  4.438417441996695e-01 -2.285897664828929e-01  5.971620659124030e-01 0 0 0 -1.714701819015228e-01  2.320461011988365e-01  5.638847860311341e-02 -6.401711297860740e-02 -3.302253699898875e-01  9.417200437132109e-01  4.046421840847812e-03 -2.768716418634151e-01  5.904385377417435e-02 -2.549149795189814e-01
16 3 4  5.003892077171085e-01 -5.596077006319726e-01  1.646402460378427e-01 0 0 0 -1.778112911578860e-01 -6.819637882683920e-02 -2.358437180039802e-04 -7.167223239606778e-02 -3.053357942438690e-03  9.951125779220060e-01 -6.785812677976663e-02  2.439302464551208e-02 -2.742983876685484e-01  9.541961235180516e-02
ITEM: TIMESTEP
5000
ITEM: NUMBER OF ATOMS
16
ITEM: BOX BOUNDS pp pp pp
-2.0000000000000000e+01 2.0000000000000000e+01
-2.0000000000000000e+01 2.0000000000000000e+01
-2.0000000000000000e+01 2.0000000000000000e+01
ITEM: ATOMS id mol type x y z ix iy iz vx vy vz c_quat[1] c_quat[2] c_quat[3] c_quat[4] angmomx angmomy angmomz
1 1 1 -6.118148285617359e-01 -6.569679227622752e-01  3.697678323286459e-01 0 0 0  7.130599709065696e-03 -8.713824571039390e-04  1.044689357956856e-01  9.960967685876582e-01 -3.971877333875340e-02  3.582552630051464e-03 -7.874523458815294e-02  2.686250846177679e-01 -2.645236127456691e-02 -2.492924401085907e-01
2 1 2 -4.557284973484647e-01 -9.902587700911539e-01  7.154014738076161e-01 0 0 0 -8.206441409434202e-02  2.347871358185727e-01 -2.030893519717243e-01  9.368544719515753e-01  1.061605476417123e-01  6.644637107602734e-02  3.265249091257412e-01 -1.280570363630255e-01 -1.459301087838433e-02  4.889181197616523e-02
3 1 3 -1.097929962014058e-01 -1.245079317538282e+00  1.071765701951489e+00 0 0 0 -2.303974394156852e-01 -7.573561186725618e-02  1.478444222434300e-01  8.033388569413088e-01  1.481944958208170e-01  1.705115065002165e-01  5.510089822205008e-01  3.217308407038612e-01 -2.471400027906535e-01 -1.608161366217979e-01
4 1 4  2.823632891013076e-01 -1.283438129101956e+00  1.425774007324937e+00 0 0 0 -2.139139183759512e-01 -4.522592363157683e-01 -2.957825455830568e-02  5.510270683369505e-01  1.493418002450799e-01  1.207520264143448e-01  8.120869071573399e-01 -2.826390418959773e-01  2.346050725402911e-01  3.135408095523748e-01
5 1 1  6.222017971777327e-01 -1.030733882864555e+00  1.761992655045029e+00 0 0 0 -1.014790983410794e-01 -2.593034330537036e-01 -1.307964883425107e-01  2.455159994267092e-01  1.167951157085099e-01  8.130387822323469e-02  9.588902306093233e-01  8.938081265935306e-02 -4.885626289303825e-02  1.411118302333995e-01
6 1 2  7.897206980783972e-01 -6.680780474717152e-01  2.163631546981567e+00 0 0 0  2.094162882022239e-02  1.426315751474208e-01  2.490877456305347e-01 -4.663867814041056e-02  5.914540475755472e-02  1.940448194209206e-02  9.969704714172528e-01  6.080185121404488e-02 -2.621533046727380e-01  1.903007584341380e-01
7 1 3  7.153145023135405e-01 -4.019359224680268e-01  2.565643801984758e+00 0 0 0  1.020273356050082e-01  4.110143776007744e-02 -1.018685465930923e-02 -4.496562607219950e-01  1.145481986549067e-01 -7.894134625401730e-02  8.823016611284561e-01  2.142943548767537e-01  4.377864069894211e-01 -1.065345593649210e-01
8 1 4  4.889977881357998e-01 -3.046876644860603e-01  3.074722307645465e+00 0 0 0  3.902178900548751e-01 -3.629097900617271e-02  1.523411448828950e-01  7.619733462535537e-01 -1.254460341376692e-02  4.136085357141112e-02 -6.461644777579446e-01 -2.349940803068731e-02  1.220009123708232e-01 -1.911108314873894e-01
9 2 1  4.075607368665436e-01 -1.442657323135899e+00  3.056834139131142e+00 0 0 0  3.022881469687783e-02  3.189204376955020e-03 -1.002679932386154e-01 -2.303882440173954e-01  6.831479452650654e-01  6.806731031228861e-01 -1.300548675896491e-01 -9.620342685896678e-02 -9.787504595795075e-03  1.466743367290732e-01
10 2 2 -2.325340443072677e-02 -1.289381056274129e+00  2.717688748300717e+00 0 0 0  1.503877213552566e-01  1.019589200393246e-01 -5.642996382511242e-02 -2.260370471045322e-01  8.863491313841554e-01  3.857774848591073e-01 -1.202838426664123e-01 -3.350349732347145e-01 -3.946562025175416e-01 -1.579335005584807e-01