LAMMPS (2 Aug 2023 - Development - stable_17Nov2016-25569-gb9efddfe0c-modified)
KOKKOS mode is enabled (../kokkos.cpp:107)
  will use up to 1 GPU(s) per node
package kokkos
###
# Box and units  (use LJ units and periodic boundaries)
###

units           lj
atom_style      ellipsoid
dimension	3
boundary	p p p

lattice		sc 0.75
Lattice spacing in x,y,z = 1.1006424 1.1006424 1.1006424
region		box block 0 120 0 120 0 120
create_box	1 box
Created orthogonal box = (0 0 0) to (132.07709 132.07709 132.07709)
  1 by 1 by 1 MPI processor grid
create_atoms	1 box
Created 1728000 atoms
  using lattice units in orthogonal box = (0 0 0) to (132.07709 132.07709 132.07709)
  create_atoms CPU = 0.250 seconds
#reset_atoms 	id sort yes

group           all type 1
1728000 atoms in group all
set             type 1 mass 1.0
Setting atom values ...
  1728000 settings made for mass
set             type 1 shape 3.0 1.0 1.0
Setting atom values ...
  1728000 settings made for shape
set             type 1 quat/random 29898
Setting atom values ...
  1728000 settings made for quat/random

velocity 	all create 0.1 87287 loop geom

neighbor        0.3 bin
neigh_modify    delay 0 every 1 check yes

dump   id all atom 5000 dump.polymer

###################################################################
# Pair interaction between non-bonded atoms
#
#  Lennard-Jones 12-6 potential with cutoff:
#  potential E=4epsilon[ (sigma/r)^12 - (sigma/r)^6]  for r<r_cut
#
#  1.12246152962189 = 2^(1/6) is the minimum of the potential

pair_style      lj/cut 1.12246152962189

#
#  pair_coeff for lj/cut, specify 4:
#    * atom type interacting with
#    * atom type
#    * epsilon (energy units)
#    * sigma (distance units)
#

pair_coeff      1 1 1.0 1.1

#
#  pair_modify shift yes adds a constant to the potential such
#  that E(r_cut)=0. Forces remains unchanged.
#

pair_modify     shift yes

###################################################

#comm_modify cutoff 6
#comm_style tiled
#balance 1.2 rcb

###
# Set up fixes
###

fix 1 all   nve   ###NVE ensemble
#fix 2 all   langevin   1.0 1.0   2.0   424242   ###Langevin integrator Tstart Tstop 1/friction rndseed

compute ekin all ke
compute epot all pe
variable ekin equal c_ekin
variable epot equal c_epot
variable etot equal c_ekin+c_epot

fix 3 all print 5000 "$(step)  ekin = ${ekin} | epot = ${epot} | etot = ${etot}" screen yes

##### Sample thermodynamic info  (temperature, energy, pressure, etc.) #####
#thermo 10000
#thermo_style   custom   step  temp  epair  emol  press pxx pyy pzz  vol
############################################################################

###
# set timestep of integrator
###
timestep 0.0001 #0.012

###
# run integration for a number of steps
###
run 50000
Generated 0 of 0 mixed pair_coeff terms from geometric mixing rule
Neighbor list info ...
  update: every = 1 steps, delay = 0 steps, check = yes
  max neighbors/atom: 2000, page size: 100000
  master list distance cutoff = 1.4224615
  ghost atom cutoff = 1.4224615
  binsize = 1.4224615, bins = 93 93 93
  1 neighbor lists, perpetual/occasional/extra = 1 0 0
  (1) pair lj/cut/kk, perpetual
      attributes: full, newton off, kokkos_device
      pair build: full/bin/kk/device
      stencil: full/bin/3d
      bin: kk/device
0  ekin = 259199.849999999 | epot = 2025633.52632246 | etot = 2284833.37632246
Per MPI rank memory allocation (min/avg/max) = 542.7 | 542.7 | 542.7 Mbytes
   Step          Temp          E_pair         E_mol          TotEng         Press     
         0   0.1            1.1722416      0              1.3222415      17.886606    
5000  ekin = 1394972.88361915 | epot = 889866.145169834 | etot = 2284839.02878899
10000  ekin = 1477515.89931609 | epot = 807331.24933949 | etot = 2284847.14865558
15000  ekin = 1492785.59485214 | epot = 792067.956982149 | etot = 2284853.55183429
20000  ekin = 1500833.79958789 | epot = 784028.654007157 | etot = 2284862.45359505
25000  ekin = 1505600.09111242 | epot = 779272.895390021 | etot = 2284872.98650244
30000  ekin = 1507200.27090721 | epot = 777679.717920755 | etot = 2284879.98882797
35000  ekin = 1508893.65157407 | epot = 775994.676876612 | etot = 2284888.32845068
40000  ekin = 1510138.73606151 | epot = 774759.940625502 | etot = 2284898.67668701
45000  ekin = 1510102.4053023 | epot = 774809.69737435 | etot = 2284912.10267665
50000  ekin = 1511268.13890423 | epot = 773652.40659314 | etot = 2284920.54549737
     50000   0.58305132     0.44771551     0              1.322292       6.2123654    
Loop time of 285.89 on 1 procs for 50000 steps with 1728000 atoms

Performance: 1511.069 tau/day, 174.892 timesteps/s, 302.214 Matom-step/s
85.3% CPU use with 1 MPI tasks x 1 OpenMP threads

MPI task timing breakdown:
Section |  min time  |  avg time  |  max time  |%varavg| %total
---------------------------------------------------------------
Pair    | 132.04     | 132.04     | 132.04     |   0.0 | 46.19
Neigh   | 9.2158     | 9.2158     | 9.2158     |   0.0 |  3.22
Comm    | 56.03      | 56.03      | 56.03      |   0.0 | 19.60
Output  | 8.7724     | 8.7724     | 8.7724     |   0.0 |  3.07
Modify  | 49.621     | 49.621     | 49.621     |   0.0 | 17.36
Other   |            | 30.21      |            |       | 10.57

Nlocal:      1.728e+06 ave   1.728e+06 max   1.728e+06 min
Histogram: 1 0 0 0 0 0 0 0 0 0
Nghost:         114266 ave      114266 max      114266 min
Histogram: 1 0 0 0 0 0 0 0 0 0
Neighs:              0 ave           0 max           0 min
Histogram: 1 0 0 0 0 0 0 0 0 0
FullNghs:  1.77215e+07 ave 1.77215e+07 max 1.77215e+07 min
Histogram: 1 0 0 0 0 0 0 0 0 0

Total # of neighbors = 17721502
Ave neighs/atom = 10.255499
Neighbor list builds = 136
Dangerous builds = 0

write_data data_out.* nocoeff
System init for write_data ...
Generated 0 of 0 mixed pair_coeff terms from geometric mixing rule
Total wall time: 0:05:03
