ITEM: TIMESTEP
0
ITEM: NUMBER OF ATOMS
16
ITEM: BOX BOUNDS pp pp pp
-2.0000000000000000e+01 2.0000000000000000e+01
-2.0000000000000000e+01 2.0000000000000000e+01
-2.0000000000000000e+01 2.0000000000000000e+01
ITEM: ATOMS id mol type x y z ix iy iz vx vy vz c_quat[1] c_quat[2] c_quat[3] c_quat[4] angmomx angmomy angmomz
1 1 1 -6.133472972454683e-01 -6.574781716697657e-01  3.606522635120193e-01 0 0 0  5.386890022865587e-02  2.262922525602673e-02  2.488229114473675e-01  9.964752158482045e-01 -5.325355573323980e-02  1.139116380710251e-02 -6.380787090289707e-02  1.772010258006941e-01 -2.958853170000101e-01 -2.624137503614725e-01
2 1 2 -4.526276424735620e-01 -1.003065053434590e+00  7.258693379233350e-01 0 0 0 -3.995003075629463e-02  2.696951106370198e-01 -1.898645454819566e-01  9.369923833143513e-01  1.122071604464856e-01  6.732538499716349e-02  3.239168400846305e-01 -3.061453937596818e-02 -1.176951893148060e-01  4.007470242647321e-02
3 1 3 -9.883421085226374e-02 -1.239775807128058e+00  1.069462285786361e+00 0 0 0 -2.078453529520138e-01 -1.362872235767304e-01 -6.062477950201746e-02  7.979649320918270e-01  1.447309635452787e-01  1.837414269936639e-01  5.554673737937029e-01 -3.676034584820381e-02 -6.308707793373186e-02 -1.479860157608762e-01
4 1 4  2.937771854299740e-01 -1.257975092489986e+00  1.425891608660695e+00 0 0 0 -2.396982418131700e-01 -5.624721730878831e-01  3.247442290503672e-02  5.660864821344559e-01  1.468827549948105e-01  9.873742533340191e-02  8.051226439917721e-01 -1.652364596501651e-01  2.860623077030974e-01  3.354351975310588e-01
5 1 1  6.286896795685166e-01 -1.018334339511973e+00  1.768934633967284e+00 0 0 0 -1.611489735682835e-01 -2.288969747076015e-01 -1.355332496264956e-01  2.533023785125306e-01  1.206231316167983e-01  8.583012223905846e-02  9.559922359911086e-01  7.151030852881342e-02 -9.415592891043179e-02  1.342288153931229e-01
6 1 2  7.901522619067975e-01 -6.766341805565261e-01  2.154016070549574e+00 0 0 0 -4.701706588477693e-02  1.921671558511004e-01  1.458824279129722e-01 -3.855807343534716e-02  8.405913137017908e-02  2.236505169306371e-02  9.954632800204194e-01  9.218622989776322e-02 -5.640128930702024e-01  9.287105657777776e-02
7 1 3  7.115777184886873e-01 -4.019557932514353e-01  2.569568683291529e+00 0 0 0  5.098438305112513e-02 -3.845955552200959e-02 -1.424419628574967e-01 -4.559284433024802e-01  1.004550065061007e-01 -5.252474529475878e-02  8.827679181910482e-01  3.479046835475834e-01  4.244922695910593e-01 -1.358288260435836e-01
8 1 4  4.697331037700536e-01 -3.025169796710685e-01  3.066800711751920e+00 0 0 0  3.782797134841193e-01 -4.953992506010833e-02  1.626392045834847e-01  7.680212215404908e-01 -9.582139884533597e-03  3.658677589040892e-02 -6.393066507464399e-01  4.428876596361290e-02  7.868414126013584e-02 -1.271360044432503e-01
9 2 1  4.056113349449895e-01 -1.443775499211899e+00  3.059072650334112e+00 0 0 0  4.912038408665491e-02  4.126064731871670e-02  1.222385633449523e-02 -2.329997575451234e-01  6.886863952313410e-01  6.747873944883376e-01 -1.268232401684158e-01  3.282916621721876e-02 -1.267054709525600e-04  1.559787854176960e-01
10 2 2 -3.202842905928804e-02 -1.294752097116472e+00  2.720107115139218e+00 0 0 0  1.939216183073483e-01  1.107523548538194e-01 -4.050505160199710e-02 -2.466206187190723e-01  8.744456399178389e-01  3.937083608782400e-01 -1.397026120939516e-01 -1.700813500181381e-01 -4.563093565840761e-01 -3.031851362703951e-01
11 2 3 -3.161385511231423e-01 -9.084141759061595e-01  2.412520787178206e+00 0 0 0 -3.513607339206460e-01 -1.882241906753569e-01  3.614793819905130e-01 -8.747590085090901e-02  9.773676023882290e-01  1.449354911309558e-01 -1.268630757266878e-01 -3.708221604627426e-01 -4.910838182594122e-01  9.435948331955418e-02
12 2 4 -3.893939125182087e-01 -4.866605488242826e-01  2.006177777000424e+00 0 0 0 -1.188642917357977e-01  2.235528245655188e-01  9.265586122144348e-03 -3.181169300779214e-02  9.634374984140114e-01 -2.442360692534372e-01 -1.054748563087919e-01 -2.823010018885836e-01  1.027648566082889e-01  1.017523347678070e-01
13 3 1 -6.232643040853247e-02 -7.155965522127516e-02  1.559320605273072e+00 0 0 0 -1.446616296238799e-01 -1.155205990978724e-01  1.331477187595642e-01 -3.278607069657226e-02  7.922941528811774e-01 -6.084214170523914e-01 -3.191282109962716e-02 -2.549872189037434e-01  2.754663721641154e-01  5.806416868630132e-02
14 3 2  1.788409039091334e-01 -5.516721349427200e-02  1.021273149730916e+00 0 0 0  5.154712003586254e-02 -3.661102651077563e-01 -6.630782880801242e-02  4.718868628834144e-02  6.316396208287697e-01 -7.737349519945346e-01  1.178309584462780e-02 -1.199984717331652e-01  6.844768922886051e-02  2.161595932308759e-01
15 3 3  4.513439961906016e-01 -2.379560738327449e-01  5.957328539616000e-01 0 0 0 -2.021424496209139e-01  2.334122693355961e-01  8.133374252278069e-03 -5.869980642620334e-02 -3.422935820341442e-01  9.376740835056506e-01  1.251996587850869e-02 -1.701391112413525e-01  1.870292260510287e-02 -2.682954134361106e-01
16 3 4  5.077649359807950e-01 -5.565625134533541e-01  1.655875784458836e-01 0 0 0 -1.920213116286801e-01 -8.105295741355378e-02 -4.693508108850740e-02 -8.582818143150042e-02  8.707732197394232e-04  9.939540921464659e-01 -6.846917358531610e-02  1.733210765264759e-02 -3.287658886280769e-01  1.085334141225924e-01
ITEM: TIMESTEP
1000
ITEM: NUMBER OF ATOMS
16
ITEM: BOX BOUNDS pp pp pp
-2.0000000000000000e+01 2.0000000000000000e+01
-2.0000000000000000e+01 2.0000000000000000e+01
-2.0000000000000000e+01 2.0000000000000000e+01
ITEM: ATOMS id mol type x y z ix iy iz vx vy vz c_quat[1] c_quat[2] c_quat[3] c_quat[4] angmomx angmomy angmomz
1 1 1 -6.128610371919242e-01 -6.573036932200095e-01  3.630457416736010e-01 0 0 0  4.339023235802590e-02  1.230127175732424e-02  2.293686556182517e-01  9.964256671452344e-01 -5.085284346750684e-02  8.605713151349861e-03 -6.690156849133469e-02  2.016473475882466e-01 -2.422367231874053e-01 -2.538826957091787e-01
2 1 2 -4.530582053281335e-01 -1.000366870374972e+00  7.238836657599652e-01 0 0 0 -4.617489215704922e-02  2.695759339795110e-01 -2.064871833705934e-01  9.369830236357056e-01  1.112802810517236e-01  6.643818022678363e-02  3.244464218876419e-01 -6.354376644268810e-02 -9.006883455290607e-02  4.021735871289638e-02
3 1 3 -1.009487904563183e-01 -1.241055825219300e+00  1.069061648451752e+00 0 0 0 -2.149648771340995e-01 -1.197762183055342e-01 -1.944829312912759e-02  7.991215926446260e-01  1.444997922556887e-01  1.826959794476238e-01  5.542081461877413e-01  3.630667639855550e-02 -1.096430314933230e-01 -1.574971717053405e-01
4 1 4  2.913982288033219e-01 -1.263516020251355e+00  1.426133883387743e+00 0 0 0 -2.360881039242057e-01 -5.454649879744295e-01  1.618484495248721e-02  5.629293065008839e-01  1.479296208085595e-01  1.028256962029183e-01  8.066314520090665e-01 -1.972081042302279e-01  2.791163341811131e-01  3.414995681483385e-01
5 1 1  6.271401264950319e-01 -1.020677141255777e+00  1.767552178102815e+00 0 0 0 -1.487413161236668e-01 -2.394030729583482e-01 -1.405099632690503e-01  2.518101804124845e-01  1.196768137265452e-01  8.493432631218557e-02  9.565852045222052e-01  7.605577754090793e-02 -9.237616356596602e-02  1.355884897302516e-01
6 1 2  7.897835375969174e-01 -6.747356881913176e-01  2.155545306387269e+00 0 0 0 -2.725934175017562e-02  1.871109861695749e-01  1.608348342461686e-01 -3.971411614190254e-02  7.776690809522910e-02  2.168110945700175e-02  9.959442888420463e-01  8.711695716345828e-02 -5.222420492120009e-01  1.185349095061439e-01
7 1 3  7.121159936540652e-01 -4.022441356163282e-01  2.568283508674230e+00 0 0 0  5.694219142366452e-02 -1.907473847560459e-02 -1.142181533359045e-01 -4.547060230189984e-01  1.028967509388980e-01 -5.830328027352315e-02  8.827544498816259e-01  3.245997068898208e-01  4.206614548199639e-01 -1.290442691942964e-01
8 1 4  4.735450662305896e-01 -3.030225111463003e-01  3.068400230859664e+00 0 0 0  3.840604131895975e-01 -5.156740908901971e-02  1.571347060789431e-01  7.669837418746708e-01 -9.858932629837693e-03  3.760909204573355e-02 -6.404875465946424e-01  2.333784806852301e-02  9.354354929437123e-02 -1.462442721173912e-01
9 2 1  4.060719730218090e-01 -1.443401834063893e+00  3.059077180929109e+00 0 0 0  4.308728673162616e-02  3.345301523287018e-02 -1.128187031646048e-02 -2.329283743879230e-01  6.874242011537609e-01  6.760464265709555e-01 -1.270966923006066e-01  5.569205756486076e-03  1.212005993249285e-03  1.557001367348237e-01
10 2 2 -3.007055234897152e-02 -1.293671364265269e+00  2.719700716474426e+00 0 0 0  1.972324842257720e-01  1.053919987261893e-01 -4.093245495424002e-02 -2.431078222047020e-01  8.769916735485068e-01  3.918129694537698e-01 -1.351546827797516e-01 -2.086391605573404e-01 -4.565922015689620e-01 -2.690984031572937e-01
11 2 3 -3.198223777159648e-01 -9.102368121171260e-01  2.416063364760350e+00 0 0 0 -3.848273952126904e-01 -1.760091240152475e-01  3.457736902667581e-01 -8.248271910419404e-02  9.782808159193509e-01  1.457641405105936e-01 -1.221313292916928e-01 -3.551622086253328e-01 -4.708957479803581e-01  6.192000075118932e-02
12 2 4 -3.906198210677430e-01 -4.844478472387553e-01  2.006351037810670e+00 0 0 0 -1.262059905931543e-01  2.186851555562642e-01  2.523756886421451e-02 -2.826009614338036e-02  9.636981782266361e-01 -2.434867134909409e-01 -1.058367072523063e-01 -2.855098979098781e-01  1.001805791431578e-01  1.020795854368347e-01
13 3 1 -6.375067783562002e-02 -7.279420989233594e-02  1.560559492395382e+00 0 0 0 -1.402705142670968e-01 -1.314745177448580e-01  1.142691962218110e-01 -2.858222646003768e-02  7.927376592273847e-01 -6.080082440571740e-01 -3.280297443504182e-02 -2.301647206047600e-01  2.877470097538162e-01  7.404403946005565e-02
14 3 2  1.793762750943333e-01 -5.886262677185051e-02  1.020582728509705e+00 0 0 0  5.541187482452772e-02 -3.727721749358445e-01 -7.181319264305003e-02  4.849364723199259e-02  6.335251157116172e-01 -7.721016675503909e-01  1.238179739079956e-02 -9.178028286586612e-02  5.878880610476280e-02  2.193807405312780e-01
15 3 3  4.493649498600791e-01 -2.356193150115742e-01  5.958829487504619e-01 0 0 0 -1.935851338737377e-01  2.337884870376051e-01  2.162473768153315e-02 -5.968225727918991e-02 -3.392512310161825e-01  9.387388407802544e-01  1.077122233592216e-02 -2.066827694310651e-01  3.283485897020168e-02 -2.713516919428425e-01
16 3 4  5.058600780745033e-01 -5.573582429020030e-01  1.651830434324174e-01 0 0 0 -1.889948800280319e-01 -7.785888139152446e-02 -3.388073757036848e-02 -8.204624683924464e-02 -1.524785103125256e-04  9.942822975878672e-01 -6.834546680862946e-02  2.248165752207686e-02 -3.180409540193342e-01  1.113486816180553e-01
ITEM: TIMESTEP
2000
ITEM: NUMBER OF ATOMS
16
ITEM: BOX BOUNDS pp pp pp
-2.0000000000000000e+01 2.0000000000000000e+01
-2.0000000000000000e+01 2.0000000000000000e+01
-2.0000000000000000e+01 2.0000000000000000e+01
ITEM: ATOMS id mol type x y z ix iy iz vx vy vz c_quat[1] c_quat[2] c_quat[3] c_quat[4] angmomx angmomy angmomz
1 1 1 -6.124794076421241e-01 -6.572310049355183e-01  3.652295948910698e-01 0 0 0  3.293499062571742e-02  2.315533079971886e-03  2.068983490173115e-01  9.963692320821299e-01 -4.821697016613533e-02  6.458345446892205e-03 -6.986964235026337e-02  2.255438638046020e-01 -1.868771655221826e-01 -2.466527040747622e-01
2 1 2 -4.535508419325875e-01 -9.976810358695036e-01  7.217571302476077e-01 0 0 0 -5.231160479760868e-02  2.672085879917384e-01 -2.178537014298420e-01  9.369929330877437e-01  1.101165985629793e-01  6.594276398534685e-02  3.249155735610709e-01 -9.224982261433586e-02 -6.643415831469526e-02  3.939687529672481e-02
3 1 3 -1.031317125182443e-01 -1.242172390483933e+00  1.069073272357277e+00 0 0 0 -2.215444599440315e-01 -1.035843521551287e-01  2.171480894197552e-02  8.003060907555003e-01  1.446626780776230e-01  1.807477300755138e-01  5.530941409413123e-01  1.088823098886096e-01 -1.551450506392073e-01 -1.656254719179602e-01
4 1 4  2.890556383996687e-01 -1.268879656677336e+00  1.426219725116165e+00 0 0 0 -2.324137587399284e-01 -5.270367501940771e-01  1.219613965983988e-03  5.597798924441456e-01  1.487093434019172e-01  1.071475269918044e-01  8.081159636213928e-01 -2.247734654953868e-01  2.719461043803660e-01  3.427457060354450e-01
5 1 1  6.257148864193532e-01 -1.023116894909398e+00  1.766133618338663e+00 0 0 0 -1.363228921351909e-01 -2.482581755963924e-01 -1.427345166463053e-01  2.502915190816116e-01  1.187815460166703e-01  8.399946210137342e-02  9.571777213080072e-01  8.079716307991225e-02 -8.695162302399737e-02  1.370330593100957e-01
6 1 2  7.895967413472468e-01 -6.728998963343605e-01  2.157248186726685e+00 0 0 0 -1.059357135271286e-02  1.796766529707136e-01  1.804015028529799e-01 -4.116199968776088e-02  7.201172032365619e-02  2.106048957370057e-02  9.963314999018391e-01  8.110455053211664e-02 -4.693613237408762e-01  1.428655424556133e-01
7 1 3  7.127214933649081e-01 -4.023347971522085e-01  2.567290841388449e+00 0 0 0  6.437832282526494e-02  1.057960013491162e-03 -8.403744604552953e-02 -4.535254223648482e-01  1.054259494438790e-01 -6.379958827723457e-02  8.826832234659829e-01  2.990658516937360e-01  4.161435734743926e-01 -1.189732392016886e-01
8 1 4  4.774131594738503e-01 -3.035480937356491e-01  3.069940995045763e+00 0 0 0  3.894954969962966e-01 -5.352469139913694e-02  1.509067764145295e-01  7.657911383405178e-01 -1.042021107601837e-02  3.861531758258566e-02 -6.418443805847812e-01  3.112918813646151e-03  1.089503592371315e-01 -1.660221663604280e-01
9 2 1  4.064748343965222e-01 -1.443106899789134e+00  3.058847948128232e+00 0 0 0  3.758010436805099e-02  2.550724892726285e-02 -3.450676235103646e-02 -2.326524532304948e-01  6.862368448491792e-01  6.772546239761990e-01 -1.275852776778474e-01 -2.110368950778267e-02  1.938799653923102e-03  1.543375736201398e-01
10 2 2 -2.809207524231357e-02 -1.292644276362740e+00  2.719285806976567e+00 0 0 0  1.980554762663587e-01  1.000245663995148e-01 -4.215771175962765e-02 -2.391409542007711e-01  8.794464083836860e-01  3.901960978206233e-01 -1.308916500413157e-01 -2.482914523224465e-01 -4.534869394352253e-01 -2.318568735693166e-01
11 2 3 -3.238234724185078e-01 -9.119291641997087e-01  2.419413110054099e+00 0 0 0 -4.148139241310203e-01 -1.622371311848936e-01  3.231344547536102e-01 -7.773958246764673e-02  9.791526302229899e-01  1.462227045819549e-01 -1.176248473320807e-01 -3.411833993669762e-01 -4.404844024261347e-01  3.032394478701938e-02
12 2 4 -3.919155334378335e-01 -4.822929502969478e-01  2.006678890042617e+00 0 0 0 -1.327992780564425e-01  2.119864285325692e-01  4.012071255055304e-02 -2.468247101508882e-02  9.639488434585352e-01 -2.427380213295122e-01 -1.061680546142548e-01 -2.878846571982214e-01  9.900001166808348e-02  1.015297208360366e-01
13 3 1 -6.513357197081580e-02 -7.419056273637166e-02  1.561599218528780e+00 0 0 0 -1.363977333909724e-01 -1.478537542450191e-01  9.336120056049743e-02 -2.452698541184901e-02  7.932596086079334e-01 -6.074388731391818e-01 -3.399464277200514e-02 -2.021560650471475e-01  3.001023780761364e-01  8.856734038582370e-02
14 3 2  1.799469884810900e-01 -6.261872668866854e-02  1.019836648220171e+00 0 0 0  5.863022855278442e-02 -3.782545542346841e-01 -7.738893843443762e-02  4.950339021028314e-02  6.354427438420951e-01 -7.704532179144442e-01  1.279736931545271e-02 -6.268348396588380e-02  4.919002987403067e-02  2.212419588071050e-01
15 3 3  4.474736451247036e-01 -2.332834161591742e-01  5.961592288954770e-01 0 0 0 -1.846218983400283e-01  2.332310137866213e-01  3.328124703020281e-02 -6.093675487556190e-02 -3.361573588210240e-01  9.397921462746081e-01  8.698495058041844e-03 -2.395154767747732e-01  4.410739901474468e-02 -2.721562924058898e-01
16 3 4  5.039841154179513e-01 -5.581153139718278e-01  1.649110252553562e-01 0 0 0 -1.862434610572339e-01 -7.335285912362682e-02 -2.050320407949444e-02 -7.839218240624510e-02 -1.206338773193922e-03  9.945883649706597e-01 -6.817033628595479e-02  2.641671798929536e-02 -3.060637844211201e-01  1.116153898422639e-01
ITEM: TIMESTEP
3000
ITEM: NUMBER OF ATOMS
16
ITEM: BOX BOUNDS pp pp pp
-2.0000000000000000e+01 2.0000000000000000e+01
-2.0000000000000000e+01 2.0000000000000000e+01
-2.0000000000000000e+01 2.0000000000000000e+01
ITEM: ATOMS id mol type x y z ix iy iz vx vy vz c_quat[1] c_quat[2] c_quat[3] c_quat[4] angmomx angmomy angmomz
1 1 1 -6.122024960720036e-01 -6.572553805805924e-01  3.671735329853077e-01 0 0 0  2.243117800871102e-02 -7.070906749728074e-03  1.813742633183603e-01  9.963076968455363e-01 -4.535547385680385e-02  4.968547485195765e-03 -7.272666452859664e-02  2.488566086870059e-01 -1.300093437019704e-01 -2.404004386856759e-01
2 1 2 -4.541031511646592e-01 -9.950304135469592e-01  7.195475239816778e-01 0 0 0 -5.806431541664337e-02  2.625298360169943e-01 -2.229480673282980e-01  9.370235155173201e-01  1.087511258717807e-01  6.577046928596933e-02  3.253219472447044e-01 -1.156868012826673e-01 -4.799892447817197e-02  3.727295445900436e-02
3 1 3 -1.053784374174799e-01 -1.243128405405083e+00  1.069493657098237e+00 0 0 0 -2.277502632911536e-01 -8.766236311824326e-02  6.219044975323736e-02  8.015034047726836e-01  1.452150821284762e-01  1.779168262686667e-01  5.521326606810185e-01  1.798323795712948e-01 -1.992968443305250e-01 -1.718908820969976e-01
4 1 4  2.867503766265231e-01 -1.274052455845756e+00  1.426163263795870e+00 0 0 0 -2.286129020935511e-01 -5.073182048284574e-01 -1.225010103265907e-02  5.566755289992813e-01  1.492565071766773e-01  1.116512455333188e-01  8.095485469381362e-01 -2.475380273870685e-01  2.646446394766534e-01  3.391435518287522e-01
5 1 1  6.244130170701234e-01 -1.025636262262353e+00  1.764706908834931e+00 0 0 0 -1.240988382223293e-01 -2.553017286517675e-01 -1.421360377616052e-01  2.487422447997434e-01  1.179781532212653e-01  8.303392402223607e-02  9.577650121381308e-01  8.571712018092276e-02 -7.785576902865635e-02  1.384692638808916e-01
6 1 2  7.895623884921134e-01 -6.711490178231722e-01  2.159164166295340e+00 0 0 0  3.290386725143596e-03  1.701833407622731e-01  2.032174463284231e-01 -4.288583055823365e-02  6.690873209509372e-02  2.050504017001428e-02  9.966260935949770e-01  7.428989946865873e-02 -4.078476750188729e-01  1.654198255788699e-01
7 1 3  7.134074375937393e-01 -4.022208275538995e-01  2.566607378787090e+00 0 0 0  7.297766867720935e-02  2.183591512849845e-02 -5.246995070300131e-02 -4.524164084441097e-01  1.080465317590689e-01 -6.898615040792751e-02  8.825453254067260e-01  2.719557691087436e-01  4.106263861552106e-01 -1.061800297875987e-01
8 1 4  4.813336242862540e-01 -3.040922644651378e-01  3.071416314291174e+00 0 0 0  3.945252062972811e-01 -5.525992773009056e-02  1.440628234802163e-01  7.644370663223895e-01 -1.126217271885319e-02  3.961523421415278e-02 -6.433815107043621e-01 -1.626494045163091e-02  1.248027348520801e-01 -1.864092629807373e-01
9 2 1  4.068256190130848e-01 -1.442892287725421e+00  3.058388437217417e+00 0 0 0  3.268582571341633e-02  1.738203437081194e-02 -5.731382938766094e-02 -2.321739853853181e-01  6.851318966103960e-01  6.784060066052202e-01 -1.282763226760799e-01 -4.707136363545780e-02  1.977065022924481e-03  1.518972290084574e-01
10 2 2 -2.611742784044011e-02 -1.291670933938866e+00  2.718855878086297e+00 0 0 0  1.964833041877533e-01  9.463753864739934e-02 -4.388881696153328e-02 -2.347237980926509e-01  8.817941778694987e-01  3.888783433341826e-01 -1.269543247395575e-01 -2.883130350189209e-01 -4.473944604233686e-01 -1.923802877232982e-01
11 2 3 -3.281073088743127e-01 -9.134777773846244e-01  2.422507735339368e+00 0 0 0 -4.413977870696076e-01 -1.473305269284598e-01  2.949995574560095e-01 -7.324299452648052e-02  9.799777269490266e-01  1.463124521418563e-01 -1.134538883637311e-01 -3.285394577204311e-01 -4.018310557860610e-01 -2.492276632594703e-04
12 2 4 -3.932728591719463e-01 -4.802143105630694e-01  2.007148691807968e+00 0 0 0 -1.385098146686857e-01  2.034308442607805e-01  5.357893316723254e-02 -2.108602867760108e-02  9.641844902721066e-01 -2.419996043574025e-01 -1.064886829864375e-01 -2.892168065384314e-01  9.954196298319046e-02  1.000012115225259e-01
13 3 1 -6.648044735160437e-02 -7.575218374239140e-02  1.562420940740213e+00 0 0 0 -1.330684253946969e-01 -1.645029693461474e-01  7.072188759021415e-02 -2.064744818565613e-02  7.938502413378419e-01 -6.067245863414744e-01 -3.550709140492109e-02 -1.715206142419693e-01  3.124172723350363e-01  1.016507328282737e-01
14 3 2  1.805469968924872e-01 -6.642390086673997e-02  1.019035797049072e+00 0 0 0  6.128344067426646e-02 -3.825911384516301e-01 -8.270791703382759e-02  5.021460605234137e-02  6.373814177652095e-01 -7.688002400012190e-01  1.302354025170028e-02 -3.329119872755176e-02  3.981613838339473e-02  2.217325243768245e-01
15 3 3  4.456733266421262e-01 -2.309579992734315e-01  5.965407356179260e-01 0 0 0 -1.754140108640729e-01  2.316818604040689e-01  4.258830510281682e-02 -6.241136127523517e-02 -3.330387753615416e-01  9.408240576099397e-01  6.331564721737570e-03 -2.677912512407309e-01  5.177135986620890e-02 -2.706809000293192e-01
16 3 4  5.021343489157533e-01 -5.588216020892937e-01  1.647728421385039e-01 0 0 0 -1.837486155737376e-01 -6.773788021737864e-02 -7.162560646552332e-03 -7.487899521310198e-02 -2.262632671480070e-03  9.948719237974845e-01 -6.795492483082209e-02  2.920563011273297e-02 -2.933775569345749e-01  1.095988054910324e-01
ITEM: TIMESTEP
4000
ITEM: NUMBER OF ATOMS
16
ITEM: BOX BOUNDS pp pp pp
-2.0000000000000000e+01 2.0000000000000000e+01
-2.0000000000000000e+01 2.0000000000000000e+01
-2.0000000000000000e+01 2.0000000000000000e+01
ITEM: ATOMS id mol type x y z ix iy iz vx vy vz c_quat[1] c_quat[2] c_quat[3] c_quat[4] angmomx angmomy angmomz
1 1 1 -6.120311779811606e-01 -6.573698241525623e-01  3.688467486022740e-01 0 0 0  1.182223457019187e-02 -1.569684490482449e-02  1.527623105373783e-01  9.962416745928830e-01 -4.227822539129313e-02  4.153923483171217e-03 -7.548392134638639e-02  2.715515880421162e-01 -7.177090847022859e-02 -2.349488959151692e-01
2 1 2 -4.547100430388953e-01 -9.924380622913785e-01  7.173217386188419e-01 0 0 0 -6.319399383033680e-02  2.555678868934387e-01 -2.209825369855105e-01  9.370766395340649e-01  1.072251579039931e-01  6.583675251959643e-02  3.256618785944730e-01 -1.330045827613986e-01 -3.574893251979214e-02  3.361312023935475e-02
3 1 3 -1.076859202487073e-01 -1.243926556577372e+00  1.070312434640142e+00 0 0 0 -2.337159817730929e-01 -7.201823088556684e-02  1.012688959139217e-01  8.026949663431621e-01  1.461423094370210e-01  1.742341177672543e-01  5.513308340784421e-01  2.479125314278945e-01 -2.417582328514471e-01 -1.758740855066962e-01
4 1 4  2.844839731407010e-01 -1.279022109816851e+00  1.425980187395405e+00 0 0 0 -2.246346053554508e-01 -4.864258571220420e-01 -2.408085039249441e-02  5.536531793391247e-01  1.496088619194654e-01  1.162822810227169e-01  8.109030623712031e-01 -2.652019763870609e-01  2.572760574020439e-01  3.307214583966971e-01
5 1 1  6.232316822507542e-01 -1.028216469875767e+00  1.763300229495463e+00 0 0 0 -1.122417885788018e-01 -2.604088611202746e-01 -1.387413490611565e-01  2.471594256012546e-01  1.173070085925325e-01  8.204619462325956e-02  9.583421654186838e-01  9.074801990081578e-02 -6.520183283034083e-02  1.398065818876082e-01
6 1 2  7.896545056330581e-01 -6.695020242589828e-01  2.161318768946129e+00 0 0 0  1.475936080180081e-02  1.589501302108354e-01  2.279113284852629e-01 -4.486486107376453e-02  6.254435385257977e-02  2.001531316630541e-02  9.968323506391885e-01  6.688255857239270e-02 -3.401580440915086e-01  1.858899286843191e-01
7 1 3  7.141838641550945e-01 -4.018962131845769e-01  2.566244262977961e+00 0 0 0  8.242278640689556e-02  4.317403706409357e-02 -2.005512358713395e-02 -4.514037174378189e-01  1.107560490070120e-01 -7.384097170496294e-02  8.823351360958833e-01  2.438766159024786e-01  4.038400728467689e-01 -9.127946268950234e-02
8 1 4  4.853021316729638e-01 -3.046520562181568e-01  3.072820519087479e+00 0 0 0  3.990955859024231e-01 -5.662453753314208e-02  1.366985718693455e-01  7.629154003028262e-01 -1.237908516444334e-02  4.061870072972466e-02 -6.451022952852510e-01 -3.464320492010969e-02  1.409921415044127e-01 -2.073272097211526e-01
9 2 1  4.071308581574977e-01 -1.442759981050687e+00  3.057703555588743e+00 0 0 0  2.848338200207479e-02  9.040398596902501e-03 -7.955525356040941e-02 -2.314953253075020e-01  6.841165133146827e-01  6.794949228662306e-01 -1.291555665465138e-01 -7.219186296488118e-02  1.256695840206785e-03  1.483891953828713e-01
10 2 2 -2.417004613198900e-02 -1.290751756448111e+00  2.718407265043834e+00 0 0 0  1.926201645150128e-01  8.918013844775094e-02 -4.585022695538875e-02 -2.298666633606079e-01  8.840217967879989e-01  3.878733376462108e-01 -1.233736350375043e-01 -3.280437445672870e-01 -4.387167824294628e-01 -1.515723967598154e-01
11 2 3 -3.326405424934688e-01 -9.148732866425733e-01  2.425299643052162e+00 0 0 0 -4.647144060172176e-01 -1.316747870997552e-01  2.628194883978741e-01 -6.898990913407314e-02  9.807535649068372e-01  1.460397336382427e-01 -1.097052120870920e-01 -3.168777517245175e-01 -3.569739252178158e-01 -2.966877584094309e-02
12 2 4 -3.946824804339437e-01 -4.782305421935771e-01  2.007744899828990e+00 0 0 0 -1.432470499510646e-01  1.930136292558307e-01  6.536988618394043e-02 -1.747941183715109e-02  9.643995759198651e-01 -2.412820501247096e-01 -1.068218161942073e-01 -2.893587953465587e-01  1.020070521530317e-01  9.737305027028438e-02
13 3 1 -6.779674119324579e-02 -7.748103717863387e-02  1.563009013930302e+00 0 0 0 -1.302784757334973e-01 -1.812772074864687e-01  4.669089287411356e-02 -1.696620936125840e-02  7.945003127488799e-01 -6.058762655659816e-01 -3.735440543848000e-02 -1.388823445203526e-01  3.245611881514404e-01  1.133558574264852e-01
14 3 2  1.811710142698640e-01 -7.026677609666886e-02  1.018184677619851e+00 0 0 0  6.344370904043288e-02 -3.857947614954201e-01 -8.736657757519528e-02  5.063009456547937e-02  6.393293695844826e-01 -7.671531984964920e-01  1.305835929972154e-02 -4.300796620198815e-03  3.084420098971385e-02  2.208150627298764e-01
15 3 3  4.439656663965182e-01 -2.286533072580264e-01  5.970016406779743e-01 0 0 0 -1.661155569832443e-01  2.290737070025788e-01  4.909245046722121e-02 -6.404360409428560e-02 -3.299233003337211e-01  9.418255120794303e-01  3.706409022060473e-03 -2.907685906166239e-01  5.518226129845052e-02 -2.668938130582553e-01
16 3 4  5.003083838616132e-01 -5.594669625871697e-01  1.647667824142647e-01 0 0 0 -1.814933273268242e-01 -6.117311625501409e-02  5.874478729602253e-03 -7.151445221989991e-02 -3.295955528061302e-03  9.951332408803293e-01 -6.771006347550747e-02  3.090262300868736e-02 -2.803559244574302e-01  1.055125927559866e-01
ITEM: TIMESTEP
5000
ITEM: NUMBER OF ATOMS
16
ITEM: BOX BOUNDS pp pp pp
-2.0000000000000000e+01 2.0000000000000000e+01
-2.0000000000000000e+01 2.0000000000000000e+01
-2.0000000000000000e+01 2.0000000000000000e+01
ITEM: ATOMS id mol type x y z ix iy iz vx vy vz c_quat[1] c_quat[2] c_quat[3] c_quat[4] angmomx angmomy angmomz
1 1 1 -6.119663783910353e-01 -6.575667141284746e-01  3.702186679999601e-01 0 0 0  1.110649842984194e-03 -2.353629582007149e-02  1.211173765640409e-01  9.961702846194284e-01 -3.899548493575514e-02  4.029488523333583e-03 -7.815292328577962e-02  2.935882312413095e-01 -1.235088315584400e-02 -2.303396379511247e-01
2 1 2 -4.553644007840762e-01 -9.899262165283608e-01  7.151529790058267e-01 0 0 0 -6.753791004373617e-02  2.464616754590296e-01 -2.114997140561202e-01  9.371545870708099e-01  1.055846066441284e-01  6.604525813205613e-02  3.259312728938642e-01 -1.436479039233536e-01 -3.033873180173657e-02  2.833178616250904e-02
3 1 3 -1.100523227886729e-01 -1.244569933700565e+00  1.071511715930318e+00 0 0 0 -2.395509923926784e-01 -5.672549656252116e-02  1.381470209101829e-01  8.038595210476670e-01  1.474186401251546e-01  1.697428266641760e-01  5.506950042997677e-01  3.116701674269761e-01 -2.820950439108419e-01 -1.772079333468886e-01
4 1 4  2.822584081021946e-01 -1.283777399901043e+00  1.425687553924964e+00 0 0 0 -2.204395763799458e-01 -4.644611323854938e-01 -3.413927101622550e-02  5.507492081235861e-01  1.498065080911430e-01  1.209839049646524e-01  8.121552897225292e-01 -2.775369571858542e-01  2.498858243170759e-01  3.175567002810535e-01
5 1 1  6.221664982889988e-01 -1.030837707618744e+00  1.761940990541524e+00 0 0 0 -1.008884872791409e-01 -2.634979831651648e-01 -1.326771960260356e-01  2.455414375999394e-01  1.168063038072115e-01  8.104501787659886e-02  9.589042678441027e-01  9.577079489551452e-02 -4.924619931944087e-02  1.409703235417392e-01
6 1 2  7.898505921104315e-01 -6.679748795897724e-01  2.163724777567066e+00 0 0 0  2.413022110534353e-02  1.462559644343036e-01  2.533308571558972e-01 -4.707529041750947e-02  5.897864980842908e-02  1.959021770063752e-02  9.969561972671235e-01  5.910552144054044e-02 -2.683652239251587e-01  2.041237622395286e-01
7 1 3  7.150577015474106e-01 -4.013557186699953e-01  2.566207410552715e+00 0 0 0  9.241106580963206e-02  6.500082172524892e-02  1.270085984351570e-02 -4.505066567012824e-01  1.135462325660635e-01 -7.834737979275720e-02  8.820502782820807e-01  2.153834664004364e-01  3.955546964148581e-01 -7.490580677358288e-02
8 1 4  4.893138490194906e-01 -3.052230432716882e-01  3.074148816335712e+00 0 0 0  4.031601878811835e-01 -5.747586413617312e-02  1.288927965716158e-01  7.612203904647287e-01 -1.376296544790913e-02  4.163585609926512e-02 -6.470089283848308e-01 -5.183541190704277e-02  1.574043759752102e-01 -2.286815246077530e-01
9 2 1  4.073978232507987e-01 -1.442712308542302e+00  3.056799751168629e+00 0 0 0  2.504150514748596e-02  4.503209414138768e-04 -1.010705161971077e-01 -2.306194558825818e-01  6.831973484355112e-01  6.805161139754795e-01 -1.302070208507249e-01 -9.629342938642048e-02 -2.848430938268862e-04  1.438275691294821e-01
10 2 2 -2.227229804378921e-02 -1.289887841997534e+00  2.717938966762234e+00 0 0 0  1.865752043201803e-01  8.356871530814659e-02 -4.778398725558126e-02 -2.245856052009867e-01  8.861184309907633e-01  3.871877152366711e-01 -1.201711503014798e-01 -3.668889253728306e-01 -4.278494352784215e-01 -1.102901186524340e-01