LAMMPS data file via write_data, version 30 Mar 2026, timestep = 2000, units = lj

148 atoms
4 atom types
148 bonds
1 bond types
148 ellipsoids

0 100 xlo xhi
0 100 ylo yhi
0 100 zlo zhi

Masses

1 3.1575
2 3.1575
3 3.1575
4 3.1575

Atoms # hybrid

1 2 24.241520933963475 24.560735805609617 25.037866026833193 1 1 3.726984996302326 0 0 0
2 2 24.41000367330463 24.21792415050576 25.387885418931322 1 1 3.726984996302326 0 0 0
3 2 24.71900817497292 23.96735568314095 25.745621010295377 1 1 3.726984996302326 0 0 0
4 2 25.218214218056644 23.98185096588324 26.223214548811 1 1 3.726984996302326 0 0 0
5 2 25.574410523227538 24.123608956473998 26.552695622324514 1 1 3.726984996302326 0 0 0
6 2 25.77593715774163 24.451996027056396 26.773314809358155 1 1 3.726984996302326 0 0 0
7 2 25.80854117205986 24.85257898342991 27.026367733731874 1 1 3.726984996302326 0 0 0
8 2 25.816068280820662 25.082532315091395 27.4769940290621 1 1 3.726984996302326 0 0 0
9 2 25.747234083739457 25.17327393486608 28.086022230398218 1 1 3.726984996302326 0 0 0
10 2 25.731342216389198 24.975617822689294 28.655896242850314 1 1 3.726984996302326 0 0 0
11 2 25.875577140659082 24.637480249894036 29.05629373419282 1 1 3.726984996302326 0 0 0
12 2 26.289341608942824 24.30874508948277 29.255807825096806 1 1 3.726984996302326 0 0 0
13 2 26.745186929663433 24.130598851516517 29.527019865768715 1 1 3.726984996302326 0 0 0
14 2 27.25339182252533 24.06170237646404 29.49331594855957 1 1 3.726984996302326 0 0 0
15 2 27.715363909616123 24.12088403689431 29.386414676753343 1 1 3.726984996302326 0 0 0
16 2 28.241366199300582 24.35172009345705 29.318939766501934 1 1 3.726984996302326 0 0 0
17 2 28.605773674745848 24.574931248721654 29.334642789131074 1 1 3.726984996302326 0 0 0
18 2 28.822589768044143 25.033940333087834 29.506431530716043 1 1 3.726984996302326 0 0 0
19 2 29.216632064353313 25.35133817715984 29.76997555840997 1 1 3.726984996302326 0 0 0
20 2 29.439834610469525 25.455657120330233 30.2432730457968 1 1 3.726984996302326 0 0 0
21 2 30.005365789464484 25.39905158254568 30.55269712755856 1 1 3.726984996302326 0 0 0
22 2 30.559406154881067 25.203764885420362 30.598229810863327 1 1 3.726984996302326 0 0 0
23 2 30.947270821105523 24.93939459790236 30.442697688878184 1 1 3.726984996302326 0 0 0
24 2 31.2563022873783 24.70816088035241 30.116032177424255 1 1 3.726984996302326 0 0 0
25 2 31.457347148329806 24.63740581433257 29.632086363032457 1 1 3.726984996302326 0 0 0
26 2 31.71427154722624 24.743918813521823 29.05798558827699 1 1 3.726984996302326 0 0 0
27 2 31.80985696710491 25.052880547061335 28.710706684601067 1 1 3.726984996302326 0 0 0
28 2 32.0740964623059 25.325934388234497 28.363019872872137 1 1 3.726984996302326 0 0 0
29 2 32.498227658175786 25.521326525282877 28.249203259306093 1 1 3.726984996302326 0 0 0
30 2 32.96072800414964 25.616453187559994 28.237284074237728 1 1 3.726984996302326 0 0 0
31 2 33.527944472590924 25.601442391919935 27.99221124830981 1 1 3.726984996302326 0 0 0
32 2 33.94128448914017 25.18715396579797 27.815224751041345 1 1 3.726984996302326 0 0 0
33 2 34.23975482240453 24.95306121072849 27.492907559412007 1 1 3.726984996302326 0 0 0
34 2 34.37212860592824 24.718777770469888 27.079715473453906 1 1 3.726984996302326 0 0 0
35 2 34.171391912341704 24.561657747356126 26.644637644383806 1 1 3.726984996302326 0 0 0
36 2 33.91548610468727 24.67078727906286 26.071946219788135 1 1 3.726984996302326 0 0 0
37 2 33.97321626992928 24.69049198024071 25.620082344730694 1 1 3.726984996302326 0 0 0
38 2 33.93528212733484 25.097498223613496 25.23331948441947 1 1 3.726984996302326 0 0 0
39 2 34.128387206013024 25.506120112195433 24.893333764993965 1 1 3.726984996302326 0 0 0
40 2 34.40600362822568 25.70186589439836 24.61204473470546 1 1 3.726984996302326 0 0 0
41 2 34.67317883225065 25.75972891821514 24.215936095807344 1 1 3.726984996302326 0 0 0
42 2 34.880489051822266 25.54836492283809 23.670336341000045 1 1 3.726984996302326 0 0 0
43 2 34.84984616056759 25.22685950123827 23.211427140232825 1 1 3.726984996302326 0 0 0
44 2 34.67042053360758 24.84776709657999 22.899091504637838 1 1 3.726984996302326 0 0 0
45 2 34.34930524976256 24.67937405064218 22.5053844658602 1 1 3.726984996302326 0 0 0
46 2 33.82612302410537 24.458695841861605 22.352680583885 1 1 3.726984996302326 0 0 0
47 2 33.29412946431966 24.454398258784916 22.409285650132595 1 1 3.726984996302326 0 0 0
48 2 32.82037617669522 24.660454941415864 22.343236765181572 1 1 3.726984996302326 0 0 0
49 2 32.46281187634168 24.930246105450987 22.12348567996677 1 1 3.726984996302326 0 0 0
50 2 32.299264701626555 25.17854616422674 21.878068111945527 1 1 3.726984996302326 0 0 0
51 2 32.047151072977535 25.404783086088994 21.382949751598023 1 1 3.726984996302326 0 0 0
52 2 31.689505120902968 25.27602847791995 20.86768719070382 1 1 3.726984996302326 0 0 0
53 2 31.404615285703272 25.112266156812904 20.4438143891949 1 1 3.726984996302326 0 0 0
54 2 30.968354434469127 24.883002639443937 20.321685160204453 1 1 3.726984996302326 0 0 0
55 2 30.384933808202145 24.667480364631967 20.35189767065527 1 1 3.726984996302326 0 0 0
56 2 30.005117173428584 24.454923890046746 20.52740991191075 1 1 3.726984996302326 0 0 0
57 2 29.55389435774246 24.39918766291636 20.79350921898268 1 1 3.726984996302326 0 0 0
58 2 29.098096280482743 24.535333902633102 21.08651329239679 1 1 3.726984996302326 0 0 0
59 2 28.815809442683868 24.909290533560792 21.394200172160968 1 1 3.726984996302326 0 0 0
60 2 28.430054923969223 25.3095296666632 21.429943663205787 1 1 3.726984996302326 0 0 0
61 2 28.02611487027284 25.678644627861928 21.299522053091145 1 1 3.726984996302326 0 0 0
62 2 27.602168070308952 25.709117943794844 20.99984554483004 1 1 3.726984996302326 0 0 0
63 2 27.003299983779883 25.626320861294108 20.919811773673104 1 1 3.726984996302326 0 0 0
64 2 26.498000558819612 25.41401462809546 21.042626254713998 1 1 3.726984996302326 0 0 0
65 2 26.236118956405246 24.99821457488323 21.25062195815492 1 1 3.726984996302326 0 0 0
66 2 26.15878036504425 24.618175975952333 21.642884193385402 1 1 3.726984996302326 0 0 0
67 2 26.20336121297843 24.482469344782523 22.1924775141923 1 1 3.726984996302326 0 0 0
68 2 26.230378785993157 24.37843043350757 22.639798711376404 1 1 3.726984996302326 0 0 0
69 2 26.183456788745655 24.666691004002626 23.15400551993932 1 1 3.726984996302326 0 0 0
70 2 26.007783496458934 24.915569343495786 23.55439421930882 1 1 3.726984996302326 0 0 0
71 2 25.686315178286872 25.148985335671405 23.927462570220577 1 1 3.726984996302326 0 0 0
72 2 25.241164557660092 25.224880932901918 24.1194668538191 1 1 3.726984996302326 0 0 0
73 2 24.712448768162126 25.16053814459557 24.383952704076723 1 1 3.726984996302326 0 0 0
74 2 24.38154657780142 24.836208237687504 24.604836447615515 1 1 3.726984996302326 0 0 0
75 3 25.482708913948326 24.498906496194028 24.83617403850191 2 1 3.726984996302326 0 0 0
76 3 25.377152438143035 24.138540274716448 24.462358316356656 2 1 3.726984996302326 0 0 0
77 3 25.12044679278851 24.000864813408388 23.997477743861097 2 1 3.726984996302326 0 0 0
78 3 24.979695885211168 24.241434831274297 23.519287291539335 2 1 3.726984996302326 0 0 0
79 3 25.002793566609242 24.597545845729805 23.0024724903678 2 1 3.726984996302326 0 0 0
80 3 25.148216035284523 24.988769146932757 22.70885507361515 2 1 3.726984996302326 0 0 0
81 3 25.53264469320734 25.313133167453266 22.539424661908942 2 1 3.726984996302326 0 0 0
82 3 25.933588209404615 25.56895490082674 22.391302447660475 2 1 3.726984996302326 0 0 0
83 3 26.488820541559843 25.611001659808544 22.272711977852715 2 1 3.726984996302326 0 0 0
84 3 26.896846875071304 25.423479217875336 22.156936338271645 2 1 3.726984996302326 0 0 0
85 3 27.207678251251554 25.06865715893868 21.938090339794 2 1 3.726984996302326 0 0 0
86 3 27.43196155272655 24.693084049266098 21.61421139346061 2 1 3.726984996302326 0 0 0
87 3 27.49557513733864 24.565697622934927 21.1304668708334 2 1 3.726984996302326 0 0 0
88 3 27.878600919200338 24.687928021152704 20.648336742791656 2 1 3.726984996302326 0 0 0
89 3 28.33908723987033 24.869554037448005 20.328193908013823 2 1 3.726984996302326 0 0 0
90 3 28.668855675686927 25.22047616722771 20.21579453167439 2 1 3.726984996302326 0 0 0
91 3 29.227810398837413 25.391366306027166 20.242885556336876 2 1 3.726984996302326 0 0 0
92 3 29.574035323087596 25.585049574999058 20.543030005712236 2 1 3.726984996302326 0 0 0
93 3 29.9881613511923 25.53482048647883 20.961585966885327 2 1 3.726984996302326 0 0 0
94 3 30.26782855259618 25.26629590130662 21.288100546094302 2 1 3.726984996302326 0 0 0
95 3 30.702983718608447 24.891126848491467 21.484291384555952 2 1 3.726984996302326 0 0 0
96 3 31.103836960121026 24.490253869163194 21.4336271753476 2 1 3.726984996302326 0 0 0
97 3 31.547743719076223 24.20225283897034 21.21965456729631 2 1 3.726984996302326 0 0 0
98 3 32.121664119406674 24.190520733666407 21.294901834299964 2 1 3.726984996302326 0 0 0
99 3 32.54745397762876 24.354307318284878 21.126475382222168 2 1 3.726984996302326 0 0 0
100 3 33.03004733068092 24.6897571960055 21.117251416210006 2 1 3.726984996302326 0 0 0
101 3 33.25137197325467 25.145248067957766 21.358578755365347 2 1 3.726984996302326 0 0 0
102 3 33.463705503331695 25.464422644389668 21.733341230298066 2 1 3.726984996302326 0 0 0
103 3 33.68190622394077 25.634716784620174 22.270927467269374 2 1 3.726984996302326 0 0 0
104 3 33.68639404350266 25.576396272941853 22.83978634972462 2 1 3.726984996302326 0 0 0
105 3 33.58519002291505 25.324377211267 23.183150354873355 2 1 3.726984996302326 0 0 0
106 3 33.78214909282459 25.041271703943544 23.64996428717872 2 1 3.726984996302326 0 0 0
107 3 34.10432500506011 24.730903041132265 23.977043998761108 2 1 3.726984996302326 0 0 0
108 3 34.464021379681974 24.58330268673515 24.170794978944755 2 1 3.726984996302326 0 0 0
109 3 34.834551529242624 24.660992473782937 24.49185159013067 2 1 3.726984996302326 0 0 0
110 3 35.077054110194325 24.888805298338664 25.086842383934183 2 1 3.726984996302326 0 0 0
111 3 35.10234424503822 25.124197677198993 25.541589274048373 2 1 3.726984996302326 0 0 0
112 3 34.92561315897735 25.34724626975757 25.968226870638837 2 1 3.726984996302326 0 0 0
113 3 34.56684872982088 25.69917343355549 26.169894991878902 2 1 3.726984996302326 0 0 0
114 3 33.98021227453769 25.738262728254423 26.378133009270464 2 1 3.726984996302326 0 0 0
115 3 33.6201514414644 25.606574873994795 26.57676054319742 2 1 3.726984996302326 0 0 0
116 3 33.32322630525851 25.151860784008576 26.76077087200034 2 1 3.726984996302326 0 0 0
117 3 32.98388418271809 24.85214156565891 27.204502167597553 2 1 3.726984996302326 0 0 0
118 3 32.982210641921256 24.543647935128387 27.61952329288688 2 1 3.726984996302326 0 0 0
119 3 33.03311636825209 24.438681243709773 28.18967020262906 2 1 3.726984996302326 0 0 0
120 3 33.02353394888875 24.646151765590556 28.791197823643127 2 1 3.726984996302326 0 0 0
121 3 32.88860355253498 24.888139980590513 29.213707938886767 2 1 3.726984996302326 0 0 0
122 3 32.599920369313125 25.271949199006794 29.552144724340693 2 1 3.726984996302326 0 0 0
123 3 32.106760498934115 25.59968844115066 29.769014639347407 2 1 3.726984996302326 0 0 0
124 3 31.5121424503638 25.77043124334948 29.769876566224514 2 1 3.726984996302326 0 0 0
125 3 31.191825067180694 25.763124979645966 29.537798840487703 2 1 3.726984996302326 0 0 0
126 3 30.630369526586897 25.576638767642148 29.436795230513248 2 1 3.726984996302326 0 0 0
127 3 30.27647602505539 25.161640967245106 29.457817004858615 2 1 3.726984996302326 0 0 0
128 3 30.068323676465337 24.67492889487119 29.652188995766046 2 1 3.726984996302326 0 0 0
129 3 29.790375307549812 24.40843136351453 29.949982898484723 2 1 3.726984996302326 0 0 0
130 3 29.33048702203671 24.301405684046617 30.373637878276416 2 1 3.726984996302326 0 0 0
131 3 28.91081801036885 24.459258919088157 30.56007529086296 2 1 3.726984996302326 0 0 0
132 3 28.45172334923304 24.68739802422591 30.517253514062954 2 1 3.726984996302326 0 0 0
133 3 27.92434317013414 24.968759685612955 30.302079799419232 2 1 3.726984996302326 0 0 0
134 3 27.651685684878327 25.225329605916585 29.984381067615043 2 1 3.726984996302326 0 0 0
135 3 27.296118638173436 25.248692369643752 29.59791005014504 2 1 3.726984996302326 0 0 0
136 3 27.18770473554435 25.154231637423127 29.108643558222184 2 1 3.726984996302326 0 0 0
137 3 26.9965903187797 25.01002721097854 28.625713665136495 2 1 3.726984996302326 0 0 0
138 3 26.90578177373186 24.629822962264512 28.354593785210835 2 1 3.726984996302326 0 0 0
139 3 26.521464855690457 24.260814406508718 28.07568920172585 2 1 3.726984996302326 0 0 0
140 3 26.09536499169453 24.056463354125448 27.972377443639772 2 1 3.726984996302326 0 0 0
141 3 25.675792942918108 23.94647284363917 27.87169386738601 2 1 3.726984996302326 0 0 0
142 3 25.19493624995353 24.094151298310535 27.650298275243323 2 1 3.726984996302326 0 0 0
143 3 24.788025913110914 24.381359902145736 27.472781451586748 2 1 3.726984996302326 0 0 0
144 3 24.66272514315741 24.694285169386536 26.935005474016407 2 1 3.726984996302326 0 0 0
145 3 24.68328521965515 25.021409233389413 26.48871025048495 2 1 3.726984996302326 0 0 0
146 3 24.938925467079045 25.111534415847693 25.916144226174957 2 1 3.726984996302326 0 0 0
147 3 25.2484114315398 25.081519505135322 25.614556529556094 2 1 3.726984996302326 0 0 0
148 3 25.4175896257146 24.856266722020766 25.182867182145316 2 1 3.726984996302326 0 0 0

Velocities

1 -0.217085383019638 -0.15211134731435694 0.010618071444916291 -0.20956957707213858 -0.2698560105757457 0.014390481900708567
2 0.04453676501427621 0.0770924070115398 0.18865549949424437 -0.10965814881710056 -0.2642110351302137 -0.23115296246060052
3 0.22820304502780345 -0.046663294277537334 -0.18249015353708273 -0.10437266586209984 0.32898046197378117 -0.08747017673394325
4 -0.15076986444731458 -0.08070977961092005 -0.09082226400412577 -0.1808464020663667 -0.18604274370893364 -0.00711240426038191
5 -0.20043248155710364 0.11446260746095972 -0.07262421126903132 -0.22160603432542916 -0.20314665526279246 -0.1122454471342764
6 0.16551707162191082 -0.26935183464327395 -0.3054177811674853 0.05321267238611587 -0.15581148334890388 0.09181504927985408
7 -0.10120365502750236 0.026645779905923168 0.06205868189087654 -0.291530123516362 -0.4454129907044755 0.025905090844382375
8 0.23299806293562994 -0.24162540741314964 0.26832782393810634 0.13450119785180478 0.1594113470309008 0.29622368056819015
9 -0.012597362777290446 -0.17930406932070816 0.05424470381010226 0.025444590732121252 0.030987529779393976 -0.1735267412423162
10 0.14156091609656163 -0.2414814763919722 -0.21307576722667085 0.05649907248559919 -0.11742039644750754 -0.10446250347010118
11 -0.3263712185326429 -0.01060348177387131 -0.25032729675008286 -0.05407509160940234 0.15728131697580017 -0.13234970553817757
12 -0.06213967194960802 0.15068878616215226 -0.2749934634243118 -0.11583292450725649 -0.048553409094702585 0.06800470296657372
13 -0.17466229336232159 0.21859071484150638 -0.03356278792514479 0.13500891565670683 0.003078982469388428 0.045581357499222236
14 0.05817582309967011 -0.1925009700805643 0.10426967174564233 -0.11501824336186273 0.06253474431964934 -0.005577586480777244
15 0.18701980254059433 -0.08045142975511863 -0.12332867709357655 -0.08654147229774034 0.25849959734422273 -0.04803772713935275
16 0.021987464480037515 0.10529000149561772 0.40203612733513694 -0.11927457347125862 0.1523509304050899 -0.2333554680761985
17 0.014703196524733553 -0.15292477402893953 0.36212881910124894 -0.09532665166116915 -0.1631226276865481 0.3198940110063768
18 -0.22208788492123058 0.09563602243816478 -0.12824568636673384 0.2719099749655452 -0.14958679495017743 -0.2041206895972233
19 0.17210632205184884 -0.23834690253560548 -0.4885876212111284 -0.08254927644213962 -0.0022266573277572124 0.3754113851957371
20 0.22211496522845459 -0.16910893568725108 0.14999933700000276 -0.18833982257890416 0.3212172303590681 0.2772313695071061
21 -0.008541597559087875 0.11971180031626902 0.2180936623078682 0.08530986176199047 -0.3090324848667761 0.030864900792070597
22 -0.05461139198094949 0.2645527850609882 -0.3433558097184683 -0.014357684030130595 -0.08736739096466181 0.10172741349480587
23 -0.1704719874525244 -0.10867673631349528 0.1646998274111229 0.10228705439736098 0.13394325221416306 0.08537961708184168
24 0.26858443224703665 0.06036936331570807 -0.028251838750239126 0.2440591698005754 -0.11892843891065868 -0.062102423817055545
25 0.42453235862470706 0.1429929433746915 -0.011087371414454414 0.1669015741711954 0.19771103263550818 0.19828177386246246
26 0.3575681620383623 0.15103336902854037 -0.04007341417718688 0.28398608833785094 -0.1855834841129994 0.01086013035939974
27 0.14132130706551008 0.005714692911009823 -0.3448169633679841 0.13607738875200204 -0.07818636892869096 0.1717053648045192
28 0.14892170963817875 0.037954213291239706 -0.012080662389459536 -0.3096244876234496 -0.14097629561399996 0.24746850652708974
29 0.2224062875520134 0.06969007388278707 0.3325119017102337 -0.04966071933382236 0.014315923543311553 0.4416818103286833
30 -0.013575358796217126 0.11601132374824852 -0.13171929303399904 -0.0408321836905784 0.39590772187236484 -0.1865212643886895
31 -0.12946639821270464 0.2417248585343881 0.020397553568026933 0.027022798427298437 -0.26929446669982016 0.2803251061162294
32 -0.08050646553829277 0.08981589472508991 -0.19857914484945996 -0.08326611746660453 0.10639313696173361 0.23590839253377324
33 -0.36502929112753707 -0.22250686409954298 0.11312281049899084 -0.3662605138400708 0.062989896816522 -0.378306418807381
34 0.14399705381073732 -0.036082845178149206 -0.4659379739888904 -0.06343905376641813 -0.17435788844802574 0.36266904867752975
35 0.10596201334217203 -0.2061003423072382 -0.18522418527045753 0.42097629884424576 0.08535180848651243 0.08820638728812573
36 -0.13907399842248452 -0.09237870322750892 -0.027611905677990885 0.2827095026685484 -0.12955697470569308 0.046831454554886603
37 -0.07157033187608919 0.20339766318714148 -0.15209196705090516 0.24353072389990588 -0.2854136417975553 -0.21229835645738415
38 -0.03336301167005941 -0.09001489395195159 -0.13314089091209327 -0.20446757538693314 -0.014142557895417834 0.053659299226942396
39 -0.2245987203695335 -0.03541741120697207 0.11883955325388959 -0.10093888326804668 0.06127129452893118 -0.22972666807555558
40 0.053591583831291555 -0.13077632484104676 -0.2940906897708911 0.22026173588903278 0.18933654732477448 0.02432648513536871
41 -0.3355894447092214 0.24092750845270106 0.02174046993279631 0.37603037916712895 -0.13737404958607521 -0.028917555362601332
42 0.2667844949918517 0.14293708422013898 0.16734956286960598 0.011058225557063948 -0.23538111587662902 -0.009738783623201741
43 0.24015855072572243 -0.17256567044312465 0.146110491905605 0.30330950770892323 0.1945751122172976 0.1670450480212512
44 0.20759089130285055 -0.2604452728764677 -0.02058025852558996 0.15248219994191625 -0.1657171875023655 0.05983146104297323
45 -0.045192385528019 0.03221919168080973 -0.09163173097852137 -0.0495040279138295 0.17765901503201895 0.11041334496690751
46 0.07213555338202468 -0.12044739343649448 0.059809336551042314 -0.01321550456876407 0.12785068374079267 -0.061789215821520596
47 -0.05749273680597715 0.03911977544955995 -0.15005877227472234 -0.34481202531665445 0.23517051236912895 0.33353196962706827
48 -0.19802506378630041 -0.1643362319967967 -0.012270395962554071 0.32426572137552173 0.13076216436810253 0.4012680833106782
49 0.19808320242242963 -0.2762929571218428 -0.1630880002254371 -0.15816130835221834 -0.09841689313793789 -0.07285642491317754
50 0.016600732800025088 0.13580668684235364 -0.09668806576899108 0.07066481294361752 0.23914908516302164 0.20547172019511933
51 0.4425780389387873 -0.25848460587163924 -0.009650432432490768 -0.3096862410232285 -0.2154321964491191 0.2923597950768191
52 -0.1163186841410845 -0.0983285990545347 -0.163900883912564 0.0947653523563961 -0.38301914805893406 0.35228704730453975
53 -0.10551992333912319 -0.19363221178157744 0.10578460619591336 0.01761848087379056 -0.26425039049282234 -5.39392446597222e-05
54 0.18794225992601757 -0.04534850101062636 0.0016063090041103178 -0.17452047534133505 -0.18734356717356354 -0.16048927264791332
55 0.1621032066889866 0.056325839082331845 0.368105505301585 0.047957128756758914 0.11578372573054045 -0.026112181539798076
56 -0.009795466256734784 -0.23033791143985488 -0.06377306974484455 0.02461459387658563 0.24967644108428985 0.12556366076525965
57 -0.024803289813084703 -0.15464373815860674 0.15016703831396808 -0.10544937682757013 0.18087541004526553 -0.00532169804249466
58 0.13336609330043941 0.025355646307735992 0.05636281803963609 0.301647755021604 -0.21517625297896129 0.2642688073913131
59 -0.013397742197758534 0.2500258251237555 0.1467990168308173 -0.027846257760599444 0.03176777433874373 0.24726288218034104
60 -0.11536105421169833 -0.15800626206217572 0.1081167401229282 0.2940235243109696 -0.14184048800797802 0.034823679181708
61 -0.15029663778348004 0.27019947244340176 0.11487071127531927 0.08673229620391143 -0.2870618962159357 -0.21198544686381715
62 -0.10707611609607537 -0.05326908269802988 -0.03184890432803959 -0.3681328772952675 -0.0006327294362334126 0.3686589422106321
63 0.11214519053902129 -0.04826576615722298 0.24703735370788077 0.17904847515419228 -0.22537884957138035 0.14468652168583973
64 0.05806310474857722 0.052193108372426814 0.2060593841181044 -0.19351629789655753 -0.4310276302460833 -0.41814098175810943
65 0.13374855009246203 0.3001702599204964 -0.13867133927731745 -0.06178907342134207 -0.2994074058043585 -0.11525234513979626
66 -0.08986691492689015 0.34466664019230536 -0.14428321768569127 0.18403690967631747 0.14622867481248553 -0.03746867282963448
67 0.03815041248307385 -0.06380159239031047 -0.009540675602127785 -0.19061426264465217 0.009627261692665088 0.0023355745815791134
68 0.23669442629054946 0.2595419690641759 -0.06443162886709047 -0.07800143534881304 -0.3854127612328477 0.004934750849546954
69 0.032201974905380966 0.1829392722132129 -0.014977655176880211 0.23592441710753087 -0.1296074878965516 0.11198444189500016
70 0.031494155008282836 0.17111164046589 -0.07794207819380328 -0.21311802686664705 0.21369668651213222 0.08819778334170364
71 0.12194762953785804 0.02791545141281914 -0.028251523347552952 -0.21275870366855568 0.015713696536458946 -0.018414028221660633
72 -0.1332586481514899 -0.3399119168272411 0.11397108720974723 -0.16504647599411326 -0.05401557096177447 -0.0636036376497772
73 -0.02866139831077307 -0.3432130329250407 0.13612448188046924 0.14514202262474946 0.09132691008836848 -0.23571779256760123
74 0.04860671251929244 -0.07845687252606183 -0.1758769139958092 0.03634672914499226 -0.23212601992977014 0.29549375736304584
75 0.04713147214244294 0.009654447105627234 0.12202989699028467 -0.15613634881857413 -0.11739212635836817 -0.007792404599194313
76 -0.1343417616693114 0.02161196410792387 -0.10925995043983795 -0.2808813485769671 0.015424408675559026 0.2450782394624845
77 0.06725915711175927 0.07104999629796328 0.08074465816478829 -0.015256113376622442 -0.053929276554018156 0.303073171776689
78 -0.06030537262816948 -0.33209021111826864 0.06689276564436013 -0.2249649686308 0.09801073544247912 0.21097278680476445
79 -0.009707187873924893 -0.27668087266988867 -0.10103553163287848 0.06087623428584532 -0.13584189087206838 -0.13020658148485978
80 -0.2643547607984967 -0.0017634331927706755 0.13817196860301617 0.16510891187303095 0.09513628874450655 0.0745955060040784
81 0.1070253903261457 -0.04052593006597962 0.015930911311735234 0.04760316121824041 -0.35349447734625694 0.06350366088838263
82 -0.12093037075693805 -0.01437740679820232 0.16275761703036432 -0.13497555817616233 0.0476899680953487 -0.11048857449804672
83 0.08824253322330841 0.02328551750115328 -0.12346548980847355 0.0035854202266932915 0.0019364827208777132 -0.005664656624640832
84 -0.1298562928791038 0.16810879366173542 0.061505007457630455 0.263713932300145 -0.25947626822995234 0.01492442598997591
85 -0.11930940096181403 -0.10116305850535691 -0.056973615807359275 0.2989184926666619 0.2758576234955923 0.10135127235960527
86 0.13893037206623446 0.03150758518204209 -0.19948364133139768 0.038825872729748245 0.2229478261164364 0.25829484813037457
87 0.06439035889654887 0.07834185285044251 -0.26599372025520984 0.357156809876751 0.1616263158534465 -0.05315075520153547
88 0.16279341001195274 -0.09439571503141533 -0.29259561637287124 0.2576701104081327 -0.19898463976183808 0.03136249657398842
89 0.029814888665466156 -0.1235673337799287 -0.04602763738169582 0.08228966344280084 -0.03824868183413663 0.17191196151016094
90 -0.052947231083175096 -0.09578534365712996 -0.05159771039652528 -0.24817885472185322 0.30962298436610297 -0.07134736232773156
91 0.14814177297146316 -0.03932344135984488 -0.17256713917671562 0.2465278155051784 0.3107173010001814 0.04042816448428863
92 0.164013755226878 0.09862410615192523 0.09793308008887514 -0.2448691836565755 0.4154874767297463 -0.034594564514115876
93 0.080666206266324 -0.06568013745516241 0.2616412333917893 -0.0006414391063743397 -0.08143084918342106 -0.028429692150468432
94 0.06844409252312866 0.027809817570524583 0.08537579187412427 0.1598494261428886 0.23587418794947318 0.08490485291923333
95 0.2330393585038951 -0.03241601442499076 -0.3088243994250761 -0.23398719099737947 -0.19534218528890335 0.011854497819252225
96 -0.06783021317825619 0.15875238248662316 -0.05146805997217195 0.0926173373233149 0.5057161927948823 0.06489194794712687
97 -0.2509375881136738 -0.16286290454857277 -0.07394385967902073 0.35964433434001114 -0.17993764605316215 -0.043971234760516335
98 -0.27626105851311444 -0.02444670364489236 0.028737044458925068 0.301219468186318 -0.2325575676733474 -0.118105289436197
99 -0.020485505647883807 0.20831044116764777 0.04716328240772607 -0.03320458142704271 -0.12755437857130936 0.0255367459855311
100 -0.11567079232117135 -0.1240307208923035 -0.12149045486371911 0.002557958135592673 -0.04568111845445819 -0.24186444295925494
101 -0.07794756519444931 -0.20074405697457923 -0.019837629565669992 -0.2451056166730888 0.13785047664818045 0.12990949817995143
102 -0.04482056078767554 -0.3544462501789345 -0.16110753182419976 0.42027851505175984 -0.23145530728720173 -0.15228723325642132
103 -0.034990188113739884 -0.11157082526076706 0.3086376723674476 0.06858885478556022 -0.4808383117131579 0.0424232293572992
104 0.20370638456753712 0.07529046855049125 -0.1354597454241761 0.038380937983228426 -0.3833801338107516 0.08592911118102362
105 -0.15588129712093673 -0.15773885704110746 0.017514020301253756 0.07270522941010181 0.38618830234225165 0.34278030760965084
106 0.10094689135521923 -0.07751951794409324 -0.05902064495279925 0.0159590649480135 0.21597425366801368 0.05641332181935613
107 -0.1545418505420525 0.279602660376084 0.11749345269452263 0.05567836295602911 0.09384804395667531 -0.1700519339576995
108 0.2262863882571699 0.06319396319528921 0.045769218309852915 0.2723108385663592 -0.15816087881905877 -0.035682257962693135
109 0.08573998222992724 0.10976050271907846 -0.2844330189490886 -0.08058572952253958 0.0022125343373203894 -0.21608211607145986
110 0.24086859365026408 -0.19192278521030787 0.03440972202171057 -0.259655946384838 0.13183400209463828 0.27913794252734964
111 0.04988913340926705 0.4580404026760799 0.0864734782341225 -0.3179734650108017 0.47958741733256915 -0.016355075472495848
112 0.26470961252169073 0.27671416269669763 -0.1437671823502826 -0.10330186853192605 -0.14435727754606448 -0.08326235205934625
113 -0.06599834986317647 0.2279669022857468 0.15694155535985715 0.03697610925488577 0.035072769069693546 0.07316810757479396
114 0.11833957559246822 0.021125416449225908 0.385217983942674 0.24526746822828335 0.16433999622824777 -0.008077170237898142
115 0.35602725521391076 -0.2930022078347233 -0.09451197028006597 0.18258477829157585 0.32119925224170703 -0.03505058831386908
116 0.19557938207909822 -0.040794649918914155 -0.16705074294415423 0.13888460209775816 -0.007299738047263953 0.12168128837114116
117 -0.03776599857736943 0.20649051800690044 0.058868459039171664 0.37958874942571763 -0.01349902821941495 0.07452537673063588
118 -0.0496909016449832 -0.04026868996801855 -0.02235327185912062 -0.008262337579721562 -0.0619526246002098 -0.19008001403667538
119 0.24975723868946936 0.02421261052725008 -0.11799141053283446 0.2268626246983093 -0.09282998651483018 0.28697470607391345
120 -0.12034974001088006 0.07017397169828382 0.07080902056762177 0.1702010032415061 0.23576162605968842 0.4326996717834163
121 -0.1545190440871102 0.08415128903079563 -0.09349875072340724 0.16921432748650098 -0.41832939650219714 0.01695116122733106
122 0.11435179489311463 -0.05816326955638028 0.11568296574662407 0.04052852080773434 0.29979173024783806 -0.011012866606928061
123 -0.2295013707987359 0.10863019481075885 0.15474760589058778 0.017027077695305055 -0.06294329201133879 0.11923921419932106
124 -0.000845646246056445 0.264166554880135 0.3338240604389819 0.1385967940640078 -0.3547268075165054 -0.13268092052176206
125 0.19031540472722883 0.08192001246510612 -0.015779753200344956 -0.4187270573121237 0.01229963790050187 -0.3560677592679461
126 -0.1462557275527867 0.18353201810526762 -0.2111993727204383 0.025148224455597654 0.09567309409952107 -0.09951484131143819
127 -0.25715037437276633 0.14950144101060076 -0.15833314627163347 -0.2650181709249263 0.3474962091742728 0.021198915673619503
128 0.007239286498019278 -0.23791137247377628 -0.2459815380488813 -0.06780681536055 0.08239216749240122 -0.34854006508668833
129 0.22344617474999912 -0.20482267178798988 0.082844147042211 -0.3021777460476869 0.18824585799387766 0.10021926792120124
130 -0.0951574307545918 0.029186394716966352 0.13082138064615817 0.028235424637833333 -0.39480008952964973 0.019215736379373374
131 -0.14209183661135283 0.005982938148789738 0.14177020760315034 -0.18021588660705232 -0.1380448539868904 -0.13103422553682742
132 0.1964445803592441 0.25663243075545783 0.027481767741021672 -0.11883310898146268 -0.2029643022937136 0.21807614982665102