LAMMPS (30 Mar 2026 - Development - patch_30Mar2026-2354-ge53685bb17-modified)
OMP_NUM_THREADS environment is not set. Defaulting to 1 thread.
  using 1 OpenMP thread(s) per MPI task
variable number	equal 6
variable ofreq	equal 1000
variable efreq	equal 100
variable T      equal 0.1
variable rhos   equal 0.2
variable nsteps equal 500000

units lj

dimension 3

newton on

boundary  p p p

atom_style hybrid bond ellipsoid oxdna
WARNING: Atom style hybrid defines both, per-type and per-atom masses; both must be set, but only per-atom masses will be used (src/atom_vec_hybrid.cpp:134)
atom_modify sort 0 1.0

# Pair interactions require lists of neighbours to be calculated
neighbor 2.0 bin
neigh_modify every 1 delay 0 check yes

fix Basepairs all property/atom i_idc ghost yes
read_data data.dsring2 fix Basepairs NULL Basepairs
Reading data file ...
  orthogonal box = (0 0 0) to (100 100 100)
  1 by 2 by 2 MPI processor grid
  reading atoms ...
  148 atoms
  reading velocities ...
  148 velocities
  scanning bonds ...
  1 = max bonds/atom
  148 ellipsoids
  orthogonal box = (0 0 0) to (100 100 100)
  1 by 2 by 2 MPI processor grid
  reading bonds ...
  148 bonds
Finding 1-2 1-3 1-4 neighbors ...
  special bond factors lj:    0        0        0       
  special bond factors coul:  0        0        0       
     2 = max # of 1-2 neighbors
     2 = max # of 1-3 neighbors
     4 = max # of 1-4 neighbors
     6 = max # of special neighbors
  special bonds CPU = 0.000 seconds
  read_data CPU = 0.003 seconds

set atom * mass 3.1575
Setting atom values ...
  148 settings made for mass

group all type 1 4
148 atoms in group all

# oxDNA3 bond interactions - FENE backbone
bond_style hybrid oxdna3/fene
bond_coeff * oxdna3/fene oxdna3_lj.cgdna
Reading oxdna3 potential (fene) file oxdna3_lj.cgdna with DATE: 2026-03-26
special_bonds lj 0 1 1
Finding 1-2 1-3 1-4 neighbors ...
  special bond factors lj:    0        1        1       
  special bond factors coul:  0        0        0       
     2 = max # of 1-2 neighbors
     2 = max # of 1-3 neighbors
     4 = max # of 1-4 neighbors
     6 = max # of special neighbors
  special bonds CPU = 0.000 seconds

# oxDNA3 pair interactions
pair_style hybrid/overlay oxdna3/excv oxdna3/stk oxdna3/hbond oxdna3/xstk oxdna3/coaxstk oxdna3/dh
pair_coeff * * oxdna3/excv     oxdna3_lj.cgdna
Reading oxdna3 potential (excv) file oxdna3_lj.cgdna with DATE: 2026-03-26
pair_coeff * * oxdna3/stk      ${T} oxdna3_lj.cgdna
pair_coeff * * oxdna3/stk      0.1 oxdna3_lj.cgdna
Reading oxdna3 potential (stk) file oxdna3_lj.cgdna with DATE: 2026-03-26
pair_coeff * * oxdna3/hbond    oxdna3_lj.cgdna
Reading oxdna3 potential (hbond) file oxdna3_lj.cgdna with DATE: 2026-03-26
pair_coeff 1 4 oxdna3/hbond    oxdna3_lj.cgdna
Reading oxdna3 potential (hbond) file oxdna3_lj.cgdna with DATE: 2026-03-26
pair_coeff 2 3 oxdna3/hbond    oxdna3_lj.cgdna
Reading oxdna3 potential (hbond) file oxdna3_lj.cgdna with DATE: 2026-03-26
pair_coeff * * oxdna3/xstk     oxdna3_lj.cgdna
Reading oxdna3 potential (xstk) file oxdna3_lj.cgdna with DATE: 2026-03-26
pair_coeff * * oxdna3/coaxstk  oxdna3_lj.cgdna
Reading oxdna potential (coaxstk) file oxdna3_lj.cgdna with DATE: 2026-03-26
pair_coeff * * oxdna3/dh       ${T} ${rhos} oxdna3_lj.cgdna
pair_coeff * * oxdna3/dh       0.1 ${rhos} oxdna3_lj.cgdna
pair_coeff * * oxdna3/dh       0.1 0.2 oxdna3_lj.cgdna
Reading oxdna potential (dh) file oxdna3_lj.cgdna with DATE: 2026-03-26

# NVE ensemble
fix 1 all nve/asphere
fix 2 all langevin ${T} ${T} 2.5 457145 angmom 10
fix 2 all langevin 0.1 ${T} 2.5 457145 angmom 10
fix 2 all langevin 0.1 0.1 2.5 457145 angmom 10

timestep 5e-3

#comm_style tiled
fix 3 all balance 1000 1.03 shift xyz 10 1.03
comm_modify cutoff 5.8

compute quat all property/atom quatw quati quatj quatk

compute erot all erotate/asphere
compute ekin all ke
compute epot all pe

compute ebond all bond
compute eexcv all pair oxdna3/excv
compute estk  all pair oxdna3/stk
compute ehbond all pair oxdna3/hbond
compute exstk all pair oxdna3/xstk
compute ecoaxstk all pair oxdna3/coaxstk
compute edh all pair oxdna3/dh

variable erot equal c_erot
variable ekin equal c_ekin
variable edyn equal c_erot+c_ekin
variable epot equal c_epot
variable etot equal c_erot+c_ekin+c_epot

variable ebond equal c_ebond[1]
variable eexcv equal c_eexcv
variable estk equal c_estk
variable ehbond equal c_ehbond
variable exstk equal c_exstk
variable ecoaxstk equal c_ecoaxstk
variable edh equal c_edh

fix 5 all print ${efreq} "$(step)  ekin = ${ekin} |  erot = ${erot} | edyn = ${edyn} | ebond = ${ebond} | eexcv = ${eexcv} | estk = ${estk} | ehbond = ${ehbond} | exstk = ${exstk} | ecoaxstk = ${ecoaxstk} | edh = ${edh} | epot = ${epot} | etot = ${etot}" screen yes
fix 5 all print 100 "$(step)  ekin = ${ekin} |  erot = ${erot} | edyn = ${edyn} | ebond = ${ebond} | eexcv = ${eexcv} | estk = ${estk} | ehbond = ${ehbond} | exstk = ${exstk} | ecoaxstk = ${ecoaxstk} | edh = ${edh} | epot = ${epot} | etot = ${etot}" screen yes

dump out all custom ${ofreq} out.${number}.lammpstrj id mol type x y z ix iy iz vx vy vz c_quat[1] c_quat[2] c_quat[3] c_quat[4] angmomx angmomy angmomz
dump out all custom 1000 out.${number}.lammpstrj id mol type x y z ix iy iz vx vy vz c_quat[1] c_quat[2] c_quat[3] c_quat[4] angmomx angmomy angmomz
dump out all custom 1000 out.6.lammpstrj id mol type x y z ix iy iz vx vy vz c_quat[1] c_quat[2] c_quat[3] c_quat[4] angmomx angmomy angmomz
dump_modify out sort id
dump_modify out format line "%d %d %d  %22.15le %22.15le %22.15le  %d %d %d  %22.15le %22.15le %22.15le  %22.15le %22.15le %22.15le %22.15le  %22.15le %22.15le %22.15le"

run ${nsteps}
run 500000
Parsing unique base pairing
Generated 0 of 6 mixed pair_coeff terms from geometric mixing rule
Neighbor list info ...
  update: every = 1 steps, delay = 0 steps, check = yes
  max neighbors/atom: 2000, page size: 100000
  master list distance cutoff = 5.6389877
  ghost atom cutoff = 5.8
  binsize = 2.8194939, bins = 36 36 36
  5 neighbor lists, perpetual/occasional/extra = 5 0 0
  (1) pair oxdna3/excv, perpetual
      attributes: half, newton on
      pair build: half/bin/newton
      stencil: half/bin/3d
      bin: standard
  (2) pair oxdna3/hbond, perpetual, copy from (1)
      attributes: half, newton on
      pair build: copy
      stencil: none
      bin: none
  (3) pair oxdna3/xstk, perpetual, copy from (1)
      attributes: half, newton on
      pair build: copy
      stencil: none
      bin: none
  (4) pair oxdna3/coaxstk, perpetual, copy from (1)
      attributes: half, newton on
      pair build: copy
      stencil: none
      bin: none
  (5) pair oxdna3/dh, perpetual, copy from (1)
      attributes: half, newton on
      pair build: copy
      stencil: none
      bin: none
0  ekin = 19.744659331895 |  erot = 21.3988532109634 | edyn = 41.1435125428584 | ebond = 16.2817524512881 | eexcv = 0 | estk = -141.703048413232 | ehbond = 0 | exstk = -18.8354225862016 | ecoaxstk = 0 | edh = 4.932165421915 | epot = -139.32455312623 | etot = -98.1810405833721
Per MPI rank memory allocation (min/avg/max) = 9.015 | 9.076 | 9.156 Mbytes
   Step          Temp          E_pair         E_mol          TotEng         Press          Volume    
         0   0.08954494    -1.051394       0.11001184    -0.80797226     1.7233418e-05  1000000      
100  ekin = 20.089502333108 |  erot = 24.5230877408859 | edyn = 44.6125900739939 | ebond = 8.50497507815436 | eexcv = 0.0158019865243831 | estk = -139.795804210957 | ehbond = -0.0224507701839673 | exstk = -21.5759704818903 | ecoaxstk = 0 | edh = 4.88710148873946 | epot = -147.986346909613 | etot = -103.373756835619
200  ekin = 20.3502753551855 |  erot = 23.1964246274284 | edyn = 43.5466999826139 | ebond = 7.7231533628357 | eexcv = 0 | estk = -139.622127134017 | ehbond = -0.0487373652716519 | exstk = -21.3993271200341 | ecoaxstk = 0 | edh = 5.06340645133399 | epot = -148.283631805153 | etot = -104.736931822539
300  ekin = 24.0041176222654 |  erot = 20.6497490860917 | edyn = 44.6538667083571 | ebond = 7.64231202537492 | eexcv = 0.0432789282591561 | estk = -141.175469433531 | ehbond = -1.61748690712693 | exstk = -21.0784205821397 | ecoaxstk = 0 | edh = 5.07902953065795 | epot = -151.106756438506 | etot = -106.452889730149
400  ekin = 19.756796740053 |  erot = 20.5693717656731 | edyn = 40.3261685057261 | ebond = 7.28396068357807 | eexcv = 0.0322146016126816 | estk = -140.025314779536 | ehbond = -2.90958684807107 | exstk = -21.6259015229474 | ecoaxstk = 0 | edh = 5.16600578986634 | epot = -152.078622075497 | etot = -111.752453569771
500  ekin = 21.5797692712752 |  erot = 20.6434145956864 | edyn = 42.2231838669615 | ebond = 5.54952414145387 | eexcv = 0 | estk = -139.697639908253 | ehbond = -3.46980388459099 | exstk = -20.8030189830457 | ecoaxstk = 0 | edh = 5.25683925756521 | epot = -153.164099376871 | etot = -110.940915509909
600  ekin = 21.2863337945298 |  erot = 23.5591756878789 | edyn = 44.8455094824088 | ebond = 5.00220664232542 | eexcv = 0.0139714753448813 | estk = -139.863171538216 | ehbond = -3.34756202934972 | exstk = -19.2408691848336 | ecoaxstk = 0 | edh = 5.43929473569448 | epot = -151.996129899034 | etot = -107.150620416625
700  ekin = 24.6874821409637 |  erot = 22.3351418620702 | edyn = 47.0226240030339 | ebond = 5.80404589595613 | eexcv = 0.00412475889896009 | estk = -142.424715562243 | ehbond = -3.97728508792629 | exstk = -20.6596230314356 | ecoaxstk = 0 | edh = 5.47668973501237 | epot = -155.776763291737 | etot = -108.754139288703
800  ekin = 24.1566129530248 |  erot = 22.5270355972286 | edyn = 46.6836485502534 | ebond = 6.7330089009483 | eexcv = 0 | estk = -141.170888201578 | ehbond = -5.24238932909578 | exstk = -20.2942741590613 | ecoaxstk = 0 | edh = 5.49149405902067 | epot = -154.483048729766 | etot = -107.799400179512
900  ekin = 23.7544276131131 |  erot = 23.5583728105538 | edyn = 47.3128004236669 | ebond = 8.30033058046555 | eexcv = 0 | estk = -139.365429455996 | ehbond = -6.33447365537548 | exstk = -20.2825549187308 | ecoaxstk = 0 | edh = 5.60368989863617 | epot = -152.078437551001 | etot = -104.765637127334
1000  ekin = 21.0075484641814 |  erot = 24.8613991923929 | edyn = 45.8689476565743 | ebond = 7.09765223505664 | eexcv = 0.0221023290175353 | estk = -139.430132336672 | ehbond = -5.9220633927386 | exstk = -19.4632320652043 | ecoaxstk = 0 | edh = 5.67069911850296 | epot = -152.024974112038 | etot = -106.156026455463
1100  ekin = 26.7265875211303 |  erot = 21.2098563007485 | edyn = 47.9364438218788 | ebond = 7.14235815474879 | eexcv = 0 | estk = -145.587422919413 | ehbond = -5.32184140022553 | exstk = -19.5964534270791 | ecoaxstk = 0 | edh = 5.7653565894921 | epot = -157.598003002477 | etot = -109.661559180598
1200  ekin = 23.8302036726461 |  erot = 22.9709470189973 | edyn = 46.8011506916434 | ebond = 6.2439087019141 | eexcv = 0 | estk = -143.145486550722 | ehbond = -7.16991147823413 | exstk = -18.7479895736782 | ecoaxstk = 0 | edh = 5.91340900718533 | epot = -156.906069893535 | etot = -110.104919201892
1300  ekin = 24.6928443113023 |  erot = 20.8777716084993 | edyn = 45.5706159198016 | ebond = 7.2273869514658 | eexcv = 0.129738351955697 | estk = -142.840301226047 | ehbond = -7.18498037144204 | exstk = -21.4470147293048 | ecoaxstk = 0 | edh = 5.89240534297827 | epot = -158.222765680394 | etot = -112.652149760592
1400  ekin = 22.2763278789235 |  erot = 24.0219127517979 | edyn = 46.2982406307215 | ebond = 6.52469372232231 | eexcv = 0.31464893563261 | estk = -142.814173969657 | ehbond = -6.46916041323386 | exstk = -19.3378735484457 | ecoaxstk = 0 | edh = 5.97859985520678 | epot = -155.803265418174 | etot = -109.505024787453
1500  ekin = 18.2138243034847 |  erot = 25.1289635507028 | edyn = 43.3427878541875 | ebond = 8.23664816151905 | eexcv = 0.00162073702120077 | estk = -142.088373828579 | ehbond = -5.29717457783256 | exstk = -18.9390961481417 | ecoaxstk = 0 | edh = 5.95403552508069 | epot = -152.132340130932 | etot = -108.789552276745
1600  ekin = 20.702598837466 |  erot = 24.6918309773899 | edyn = 45.3944298148559 | ebond = 7.26392036546284 | eexcv = 0.0970657925779704 | estk = -141.823443060132 | ehbond = -6.16023423439186 | exstk = -20.6389982823249 | ecoaxstk = 0 | edh = 5.89888433785608 | epot = -155.362805080952 | etot = -109.968375266096
1700  ekin = 20.2861944444083 |  erot = 22.5137989560212 | edyn = 42.7999934004295 | ebond = 6.5961929997287 | eexcv = 0 | estk = -142.903792058567 | ehbond = -7.87258244290205 | exstk = -19.9669272089197 | ecoaxstk = 0 | edh = 5.84052662072206 | epot = -158.306582089938 | etot = -115.506588689508
1800  ekin = 24.5508205324444 |  erot = 22.1465345414029 | edyn = 46.6973550738473 | ebond = 6.92708159621652 | eexcv = 0 | estk = -145.25388687677 | ehbond = -7.235131835917 | exstk = -19.3474691332886 | ecoaxstk = 0 | edh = 5.83526401236562 | epot = -159.074142237394 | etot = -112.376787163546
1900  ekin = 27.7851191618019 |  erot = 21.2955341622871 | edyn = 49.080653324089 | ebond = 6.05221286842981 | eexcv = 8.88849325523466e-07 | estk = -143.158709755389 | ehbond = -8.3358831384415 | exstk = -21.4207962118617 | ecoaxstk = 0 | edh = 5.82047734691669 | epot = -161.042698001496 | etot = -111.962044677407
2000  ekin = 22.1747644962649 |  erot = 21.6532513280694 | edyn = 43.8280158243343 | ebond = 7.13929972722094 | eexcv = 0 | estk = -144.043752516979 | ehbond = -7.12150767438943 | exstk = -20.4798581457804 | ecoaxstk = 0 | edh = 5.65828766593473 | epot = -158.847530943994 | etot = -115.019515119659
2100  ekin = 24.8664848713315 |  erot = 23.6909105320657 | edyn = 48.5573954033972 | ebond = 8.16732658200323 | eexcv = 0.017440348195255 | estk = -144.564094127167 | ehbond = -7.14688031565168 | exstk = -20.4366790637206 | ecoaxstk = 0 | edh = 5.74092904326571 | epot = -158.221957533075 | etot = -109.664562129678
2200  ekin = 21.3823538074598 |  erot = 23.2234633348156 | edyn = 44.6058171422755 | ebond = 8.3725290719759 | eexcv = 0 | estk = -145.197566471532 | ehbond = -7.63756598419513 | exstk = -21.2540609472057 | ecoaxstk = 0 | edh = 5.78976629800238 | epot = -159.926898032954 | etot = -115.321080890679
2300  ekin = 23.6444479205399 |  erot = 21.9111012878631 | edyn = 45.555549208403 | ebond = 7.88065502066127 | eexcv = 0.206472501653348 | estk = -143.131673515022 | ehbond = -7.45012306324892 | exstk = -19.6759736509329 | ecoaxstk = 0 | edh = 5.80341895635738 | epot = -156.367223750532 | etot = -110.811674542129
2400  ekin = 22.7299157499369 |  erot = 22.0986337004624 | edyn = 44.8285494503993 | ebond = 8.08433134866445 | eexcv = 0.0483711382465596 | estk = -142.870731516957 | ehbond = -7.98715120483095 | exstk = -19.0818193597712 | ecoaxstk = 0 | edh = 5.89702561542316 | epot = -155.909973979225 | etot = -111.081424528826
2500  ekin = 21.2598943733677 |  erot = 21.7053252432636 | edyn = 42.9652196166313 | ebond = 6.63807040479099 | eexcv = 0 | estk = -142.382350661634 | ehbond = -8.49727260308644 | exstk = -18.9364937458072 | ecoaxstk = 0 | edh = 5.75145640175229 | epot = -157.426590203985 | etot = -114.461370587353
2600  ekin = 22.0445789130342 |  erot = 24.6592796195987 | edyn = 46.7038585326329 | ebond = 6.20865700889407 | eexcv = 0 | estk = -139.512062552803 | ehbond = -10.1684742082493 | exstk = -21.0275022126464 | ecoaxstk = 0 | edh = 5.62939793264531 | epot = -158.86998403216 | etot = -112.166125499527
2700  ekin = 21.1720656365694 |  erot = 22.2057113293943 | edyn = 43.3777769659637 | ebond = 7.3276886831819 | eexcv = 0.310677581958039 | estk = -141.467905433193 | ehbond = -9.21906207370143 | exstk = -21.3580072959458 | ecoaxstk = 0 | edh = 5.55841590875016 | epot = -158.84819262895 | etot = -115.470415662987
2800  ekin = 21.4786826813937 |  erot = 21.6396884049241 | edyn = 43.1183710863178 | ebond = 6.43563623953967 | eexcv = 0 | estk = -140.909074455716 | ehbond = -9.22445849940926 | exstk = -21.2698757214005 | ecoaxstk = 0 | edh = 5.48166508175872 | epot = -159.486107355228 | etot = -116.36773626891
2900  ekin = 21.4163902118277 |  erot = 23.450653866756 | edyn = 44.8670440785836 | ebond = 7.16480790466417 | eexcv = 0 | estk = -145.268565525627 | ehbond = -10.0340360340641 | exstk = -21.9986175998565 | ecoaxstk = 0 | edh = 5.55221869839615 | epot = -164.584192556488 | etot = -119.717148477904
3000  ekin = 21.2581939476716 |  erot = 20.9731856262338 | edyn = 42.2313795739055 | ebond = 7.83179412962634 | eexcv = 0.0948247883018798 | estk = -147.123392137029 | ehbond = -7.99309891425338 | exstk = -22.0741230585057 | ecoaxstk = 0 | edh = 5.72982057044938 | epot = -163.534174621411 | etot = -121.302795047505
3100  ekin = 20.9941070405931 |  erot = 21.9264740604161 | edyn = 42.9205811010092 | ebond = 6.21186347321593 | eexcv = 0.0905062412929776 | estk = -145.626397522526 | ehbond = -8.92179588786306 | exstk = -20.3758349467779 | ecoaxstk = 0 | edh = 5.74461752467668 | epot = -162.877041117981 | etot = -119.956460016972
3200  ekin = 20.944267439546 |  erot = 22.9484421314402 | edyn = 43.8927095709862 | ebond = 8.33077097374187 | eexcv = 0.122419375702333 | estk = -144.050006156239 | ehbond = -10.1827031110413 | exstk = -20.8471879045287 | ecoaxstk = 0 | edh = 5.81365557767083 | epot = -160.813051244694 | etot = -116.920341673708
3300  ekin = 24.5155427058935 |  erot = 20.6693879636862 | edyn = 45.1849306695797 | ebond = 7.74952730046059 | eexcv = 0.106683956765832 | estk = -145.732829131254 | ehbond = -8.96177239886899 | exstk = -22.0135289084677 | ecoaxstk = 0 | edh = 5.81484125041905 | epot = -163.037077930945 | etot = -117.852147261365
3400  ekin = 22.4011927915096 |  erot = 22.885988381775 | edyn = 45.2871811732846 | ebond = 6.61379154040666 | eexcv = 0 | estk = -144.202037528498 | ehbond = -10.4763391988548 | exstk = -20.3938350680873 | ecoaxstk = 0 | edh = 5.85152521966256 | epot = -162.606895035371 | etot = -117.319713862086
3500  ekin = 21.8170989555783 |  erot = 21.3413126843823 | edyn = 43.1584116399606 | ebond = 7.18852505074787 | eexcv = 0.00475597421199904 | estk = -142.129552436699 | ehbond = -10.6786616875634 | exstk = -20.7851269486588 | ecoaxstk = 0 | edh = 5.74692640572211 | epot = -160.65313364224 | etot = -117.494722002279
3600  ekin = 20.9233463234567 |  erot = 20.6154894366409 | edyn = 41.5388357600975 | ebond = 6.62435109502515 | eexcv = 0 | estk = -142.84036883819 | ehbond = -10.7543348435518 | exstk = -19.2696156307813 | ecoaxstk = 0 | edh = 5.76368745510186 | epot = -160.476280762396 | etot = -118.937445002298
3700  ekin = 22.3961885401829 |  erot = 25.5686684011569 | edyn = 47.9648569413398 | ebond = 7.26461665845749 | eexcv = 0 | estk = -142.613485897822 | ehbond = -11.0319831602771 | exstk = -20.6139250188844 | ecoaxstk = 0 | edh = 5.79505404265323 | epot = -161.199723375873 | etot = -113.234866434533
3800  ekin = 21.1256330225613 |  erot = 24.6202954409003 | edyn = 45.7459284634617 | ebond = 7.34036417996207 | eexcv = 0 | estk = -139.421335137986 | ehbond = -10.7273828463826 | exstk = -21.3089229372167 | ecoaxstk = 0 | edh = 5.84825295299238 | epot = -158.269023788631 | etot = -112.52309532517
3900  ekin = 24.0019188102936 |  erot = 21.7523638175739 | edyn = 45.7542826278675 | ebond = 7.24067753796073 | eexcv = 0.0173920570346826 | estk = -142.659246963959 | ehbond = -8.5302256094683 | exstk = -20.5527444758624 | ecoaxstk = 0 | edh = 5.85304045677641 | epot = -158.631106997518 | etot = -112.876824369651
4000  ekin = 20.4222652611949 |  erot = 21.0829758772066 | edyn = 41.5052411384015 | ebond = 7.88263992328887 | eexcv = 0.0519044690383702 | estk = -142.292916108438 | ehbond = -9.50436952884539 | exstk = -20.8945314392727 | ecoaxstk = 0 | edh = 5.80650340192295 | epot = -158.950769282306 | etot = -117.445528143904
4100  ekin = 23.9833218305483 |  erot = 21.3900088767904 | edyn = 45.3733307073387 | ebond = 6.04032195983607 | eexcv = 0.239965533816822 | estk = -141.37723913163 | ehbond = -12.6910349219461 | exstk = -20.4489258322763 | ecoaxstk = 0 | edh = 5.87384897957481 | epot = -162.363063412625 | etot = -116.989732705286
4200  ekin = 22.2684858808651 |  erot = 23.5826267586839 | edyn = 45.851112639549 | ebond = 6.52574046883101 | eexcv = 0 | estk = -141.440075538753 | ehbond = -12.724433017965 | exstk = -22.3358085938952 | ecoaxstk = 0 | edh = 5.92220649930537 | epot = -164.052370182477 | etot = -118.201257542928
4300  ekin = 21.3214189758772 |  erot = 23.0077932854014 | edyn = 44.3292122612786 | ebond = 6.45432360883303 | eexcv = 0.000718502587158836 | estk = -140.583336491915 | ehbond = -13.3765689310774 | exstk = -23.7946108638202 | ecoaxstk = 0 | edh = 5.95213939679048 | epot = -165.347334778602 | etot = -121.018122517323
4400  ekin = 21.3969186971119 |  erot = 23.8532091265087 | edyn = 45.2501278236206 | ebond = 6.73224799637677 | eexcv = 0.0317719794706454 | estk = -140.929877703492 | ehbond = -12.8029025444895 | exstk = -21.5784427679914 | ecoaxstk = 0 | edh = 5.95293117533523 | epot = -162.59427186479 | etot = -117.34414404117
4500  ekin = 22.4037895498064 |  erot = 20.1740512341656 | edyn = 42.577840783972 | ebond = 8.48425810529845 | eexcv = 0 | estk = -140.538277027855 | ehbond = -12.69704965376 | exstk = -21.4474037568048 | ecoaxstk = 0 | edh = 5.87823539386659 | epot = -160.320236939255 | etot = -117.742396155283
4600  ekin = 21.9118970473835 |  erot = 21.8502687056819 | edyn = 43.7621657530654 | ebond = 6.84084340832572 | eexcv = 0 | estk = -137.713896578833 | ehbond = -13.9154252586447 | exstk = -22.408129157145 | ecoaxstk = 0 | edh = 5.77322264778599 | epot = -161.423384938511 | etot = -117.661219185446
4700  ekin = 21.9389149824545 |  erot = 22.7847568862735 | edyn = 44.7236718687281 | ebond = 6.67552837964053 | eexcv = 0 | estk = -137.941731365189 | ehbond = -14.3226275879952 | exstk = -19.3928633404996 | ecoaxstk = 0 | edh = 5.72876020127112 | epot = -159.252933712772 | etot = -114.529261844044
4800  ekin = 22.3980707741553 |  erot = 22.3055297265364 | edyn = 44.7036005006917 | ebond = 7.99276716365071 | eexcv = 0 | estk = -141.554462173716 | ehbond = -15.654839767694 | exstk = -18.9610046204776 | ecoaxstk = 0 | edh = 5.72323873449144 | epot = -162.454300663745 | etot = -117.750700163053
4900  ekin = 20.6555323859599 |  erot = 22.3525036744701 | edyn = 43.00803606043 | ebond = 7.43298583227286 | eexcv = 0.27887205782585 | estk = -138.303004710092 | ehbond = -14.9130885037148 | exstk = -19.2691460099601 | ecoaxstk = 0 | edh = 5.6095048293348 | epot = -159.163876504334 | etot = -116.155840443904
5000  ekin = 21.3127884220934 |  erot = 23.0078430221145 | edyn = 44.3206314442078 | ebond = 7.19261206570576 | eexcv = 0.0174183688974713 | estk = -139.039826922685 | ehbond = -15.9403363423485 | exstk = -22.297683176177 | ecoaxstk = 0 | edh = 5.56148456438713 | epot = -164.50633144222 | etot = -120.185699998012
5100  ekin = 21.7584933866378 |  erot = 19.8465178181324 | edyn = 41.6050112047702 | ebond = 6.23708100335361 | eexcv = 0 | estk = -142.155707356788 | ehbond = -12.52260175129 | exstk = -21.6832587920716 | ecoaxstk = 0 | edh = 5.57244474471934 | epot = -164.552042152077 | etot = -122.947030947307
5200  ekin = 23.5025833979203 |  erot = 20.9171268429741 | edyn = 44.4197102408943 | ebond = 6.21805068115026 | eexcv = 0.0930318301162196 | estk = -140.944097953954 | ehbond = -13.9086787489004 | exstk = -22.2439450480348 | ecoaxstk = 0 | edh = 5.71522569518613 | epot = -165.070413544437 | etot = -120.650703303542
5300  ekin = 24.6723833083837 |  erot = 18.7174863560577 | edyn = 43.3898696644414 | ebond = 7.57276505061374 | eexcv = 0.0436674884029773 | estk = -144.310970611674 | ehbond = -14.8974136896342 | exstk = -22.7988818654612 | ecoaxstk = 0 | edh = 5.61303880555556 | epot = -168.777794822197 | etot = -125.387925157755
5400  ekin = 22.3916047030825 |  erot = 20.2798717916886 | edyn = 42.6714764947712 | ebond = 6.12498450420426 | eexcv = 0 | estk = -141.257327382611 | ehbond = -15.2909560586887 | exstk = -23.2826270551657 | ecoaxstk = 0 | edh = 5.52023625286361 | epot = -168.185689739398 | etot = -125.514213244626
5500  ekin = 23.0705695177225 |  erot = 19.7319561602276 | edyn = 42.8025256779501 | ebond = 6.47031187367981 | eexcv = 0 | estk = -144.15386848877 | ehbond = -13.9401233745644 | exstk = -21.9497268638274 | ecoaxstk = 0 | edh = 5.64863532861958 | epot = -167.924771524863 | etot = -125.122245846913
5600  ekin = 20.5854851813301 |  erot = 21.4058873479701 | edyn = 41.9913725293002 | ebond = 6.90714472238742 | eexcv = 0 | estk = -140.465330094815 | ehbond = -14.3305150366356 | exstk = -21.2805595431117 | ecoaxstk = 0 | edh = 5.76419998255943 | epot = -163.405059969615 | etot = -121.413687440315
5700  ekin = 20.0234333685099 |  erot = 24.3177991170578 | edyn = 44.3412324855677 | ebond = 7.5481442867933 | eexcv = 0.107201307706297 | estk = -147.022625613381 | ehbond = -14.6310487129678 | exstk = -21.2126047916187 | ecoaxstk = 0 | edh = 5.79541663950696 | epot = -169.415516883961 | etot = -125.074284398394
5800  ekin = 18.7970224890296 |  erot = 22.1049059269024 | edyn = 40.9019284159321 | ebond = 5.45407381372861 | eexcv = 0.141717096157853 | estk = -144.109282273889 | ehbond = -14.5706502457378 | exstk = -22.3360811614011 | ecoaxstk = 0 | edh = 5.88281222203825 | epot = -169.537410549103 | etot = -128.635482133171
5900  ekin = 20.6646407029859 |  erot = 21.5581065217209 | edyn = 42.2227472247068 | ebond = 5.71259879375928 | eexcv = 0 | estk = -142.578449654802 | ehbond = -14.8692585004495 | exstk = -22.1898268858823 | ecoaxstk = 0 | edh = 5.75695841182142 | epot = -168.167977835553 | etot = -125.945230610847
6000  ekin = 22.6630210282271 |  erot = 21.1993642382324 | edyn = 43.8623852664595 | ebond = 7.09774594125562 | eexcv = 0 | estk = -142.936006599275 | ehbond = -16.44348337125 | exstk = -22.6454883649389 | ecoaxstk = 0 | edh = 5.67978748362589 | epot = -169.247444910582 | etot = -125.385059644123
6100  ekin = 21.354660573016 |  erot = 20.7340091702957 | edyn = 42.0886697433117 | ebond = 5.94049935652542 | eexcv = 0 | estk = -141.80357437501 | ehbond = -15.4670292777014 | exstk = -22.0087701588436 | ecoaxstk = 0 | edh = 5.6360871997087 | epot = -167.702787255321 | etot = -125.614117512009
6200  ekin = 23.1622881447165 |  erot = 23.7480613386152 | edyn = 46.9103494833317 | ebond = 6.73127437010975 | eexcv = 0 | estk = -141.995112615936 | ehbond = -15.1705341079977 | exstk = -22.4231930829074 | ecoaxstk = 0 | edh = 5.54742424933954 | epot = -167.310141187392 | etot = -120.39979170406
6300  ekin = 20.913357090233 |  erot = 21.6666547394269 | edyn = 42.5800118296599 | ebond = 7.4910894262656 | eexcv = 0 | estk = -140.223519813586 | ehbond = -14.5165832941608 | exstk = -22.5205167901957 | ecoaxstk = 0 | edh = 5.63007487982855 | epot = -164.139455591849 | etot = -121.559443762189
6400  ekin = 23.0451495360828 |  erot = 22.1830571329518 | edyn = 45.2282066690346 | ebond = 6.84291884994018 | eexcv = 0 | estk = -142.382631515215 | ehbond = -14.834284846384 | exstk = -21.8197207010941 | ecoaxstk = 0 | edh = 5.60796089335742 | epot = -166.585757319396 | etot = -121.357550650361
6500  ekin = 19.8659824662603 |  erot = 23.1651967073989 | edyn = 43.0311791736592 | ebond = 7.16399724119384 | eexcv = 0 | estk = -142.351677321725 | ehbond = -15.5528886780495 | exstk = -22.5099020848706 | ecoaxstk = 0 | edh = 5.61253120177858 | epot = -167.637939641673 | etot = -124.606760468014
6600  ekin = 21.9955844721325 |  erot = 21.3348189516813 | edyn = 43.3304034238138 | ebond = 8.01882327590485 | eexcv = 0 | estk = -141.85184627303 | ehbond = -16.2062496466343 | exstk = -21.9983050952062 | ecoaxstk = 0 | edh = 5.59873243999605 | epot = -166.438845298969 | etot = -123.108441875155
6700  ekin = 20.0164174973632 |  erot = 21.7956561328545 | edyn = 41.8120736302177 | ebond = 7.84983003500294 | eexcv = 0.0982633127238596 | estk = -140.299499288273 | ehbond = -15.8249787069165 | exstk = -21.1841433232566 | ecoaxstk = 0 | edh = 5.58061301077373 | epot = -163.779914959946 | etot = -121.967841329728
6800  ekin = 22.9036511712398 |  erot = 26.038055672919 | edyn = 48.9417068441587 | ebond = 7.85604690358849 | eexcv = 0.00194117993349226 | estk = -141.020384190319 | ehbond = -17.4285080407867 | exstk = -23.6394762509731 | ecoaxstk = 0 | edh = 5.61165930644956 | epot = -168.618721092107 | etot = -119.677014247948
6900  ekin = 20.7129510201191 |  erot = 24.7348153932864 | edyn = 45.4477664134054 | ebond = 7.48137185178993 | eexcv = 0 | estk = -140.203619512189 | ehbond = -17.9833404801722 | exstk = -20.9469967915501 | ecoaxstk = 0 | edh = 5.73316066133921 | epot = -165.919424270783 | etot = -120.471657857377
7000  ekin = 20.9068980708255 |  erot = 23.6161450294708 | edyn = 44.5230431002963 | ebond = 5.43599975502968 | eexcv = 0.222624368887971 | estk = -137.907628254712 | ehbond = -14.8883041507582 | exstk = -23.3852778799697 | ecoaxstk = 0 | edh = 5.6349791271389 | epot = -164.887607034383 | etot = -120.364563934087
7100  ekin = 24.2614081457683 |  erot = 20.9640305434475 | edyn = 45.2254386892158 | ebond = 7.05342550525557 | eexcv = 0 | estk = -140.826347510945 | ehbond = -15.9021007515653 | exstk = -22.2307766217073 | ecoaxstk = 0 | edh = 5.69482534836053 | epot = -166.210974030602 | etot = -120.985535341386
7200  ekin = 24.7194427737485 |  erot = 21.012216625093 | edyn = 45.7316593988415 | ebond = 6.67653533869157 | eexcv = 0 | estk = -141.985766519668 | ehbond = -17.2500152202768 | exstk = -21.9844361628589 | ecoaxstk = 0 | edh = 5.75385490244711 | epot = -168.789827661665 | etot = -123.058168262824
7300  ekin = 21.5140513800944 |  erot = 19.3979174520158 | edyn = 40.9119688321101 | ebond = 7.30403209812505 | eexcv = 0.117829332264978 | estk = -139.623785557535 | ehbond = -16.2499654389009 | exstk = -21.7666956172658 | ecoaxstk = 0 | edh = 5.78207700785786 | epot = -164.436508175454 | etot = -123.524539343344
7400  ekin = 20.44207071577 |  erot = 22.5371655714683 | edyn = 42.9792362872383 | ebond = 7.39290159017679 | eexcv = 0.218456448988994 | estk = -141.315562629114 | ehbond = -17.673177516738 | exstk = -20.2759058615635 | ecoaxstk = 0 | edh = 5.76300794579356 | epot = -165.890280022456 | etot = -122.911043735217
7500  ekin = 20.938015219269 |  erot = 21.0636092441999 | edyn = 42.0016244634689 | ebond = 5.15661956138694 | eexcv = 0 | estk = -142.32491489172 | ehbond = -17.1156732992437 | exstk = -20.2219366425574 | ecoaxstk = 0 | edh = 5.81222445034738 | epot = -168.693680821787 | etot = -126.692056358318
7600  ekin = 22.10435030041 |  erot = 20.8990887998517 | edyn = 43.0034391002617 | ebond = 8.30074083993301 | eexcv = 0 | estk = -143.503900008516 | ehbond = -19.1636654160478 | exstk = -20.4396115889303 | ecoaxstk = 0 | edh = 5.96194207779288 | epot = -168.844494095768 | etot = -125.841054995507
7700  ekin = 24.1406901328668 |  erot = 23.2919991400841 | edyn = 47.4326892729509 | ebond = 6.09888738485776 | eexcv = 0.0198681892943271 | estk = -141.257568291488 | ehbond = -17.9257542056302 | exstk = -20.1048511042367 | ecoaxstk = 0 | edh = 5.93052686460796 | epot = -167.238891162595 | etot = -119.806201889644
7800  ekin = 23.5519216377977 |  erot = 21.9833340924475 | edyn = 45.5352557302452 | ebond = 7.20013069533745 | eexcv = 0.0295961400765904 | estk = -142.33193284033 | ehbond = -17.437782512826 | exstk = -22.0972356688399 | ecoaxstk = 0 | edh = 5.89667490510196 | epot = -168.74054928148 | etot = -123.205293551235
7900  ekin = 19.4953114999168 |  erot = 23.1615600054046 | edyn = 42.6568715053214 | ebond = 8.47887265442949 | eexcv = 0 | estk = -144.197993179462 | ehbond = -16.0015393875597 | exstk = -21.4060612347875 | ecoaxstk = 0 | edh = 5.82941437180077 | epot = -167.297306775579 | etot = -124.640435270258
8000  ekin = 20.7813737580538 |  erot = 22.4135074303702 | edyn = 43.194881188424 | ebond = 5.95612167989023 | eexcv = 0.118540765196494 | estk = -139.862821639167 | ehbond = -16.2596586588278 | exstk = -20.404664048553 | ecoaxstk = 0 | edh = 5.76340542327426 | epot = -164.689076478187 | etot = -121.494195289763
8100  ekin = 23.4859829840107 |  erot = 21.168921848524 | edyn = 44.6549048325347 | ebond = 7.18429502373912 | eexcv = 0.00252002879124234 | estk = -142.369502344674 | ehbond = -17.8321917231946 | exstk = -21.6810360569451 | ecoaxstk = 0 | edh = 5.71730559693632 | epot = -168.978609475347 | etot = -124.323704642812
8200  ekin = 21.1755664917152 |  erot = 21.8100394966656 | edyn = 42.9856059883807 | ebond = 7.78295070878093 | eexcv = 0 | estk = -140.515605578058 | ehbond = -15.7112002689414 | exstk = -21.4431172063016 | ecoaxstk = 0 | edh = 5.7014484192249 | epot = -164.185523925295 | etot = -121.199917936914
8300  ekin = 19.7135995805376 |  erot = 22.6898765006052 | edyn = 42.4034760811428 | ebond = 6.97707922651244 | eexcv = 0.205388303334456 | estk = -139.812364320568 | ehbond = -17.4238466803917 | exstk = -20.4909427948774 | ecoaxstk = 0 | edh = 5.69648291752726 | epot = -164.848203348463 | etot = -122.44472726732
8400  ekin = 22.4271993535403 |  erot = 23.0238541537233 | edyn = 45.4510535072636 | ebond = 7.16900124174035 | eexcv = 0.0608211377825279 | estk = -144.758120974179 | ehbond = -16.0694192072275 | exstk = -22.2243346558145 | ecoaxstk = 0 | edh = 5.74741217941597 | epot = -170.074640278282 | etot = -124.623586771018
8500  ekin = 21.5725856647901 |  erot = 21.5404066102633 | edyn = 43.1129922750534 | ebond = 6.81637633342888 | eexcv = 0.0593044140193514 | estk = -143.689202159351 | ehbond = -15.9880150503672 | exstk = -20.6018193693217 | ecoaxstk = 0 | edh = 5.74113758715346 | epot = -167.662218244438 | etot = -124.549225969385
8600  ekin = 24.29346734765 |  erot = 23.1186831958665 | edyn = 47.4121505435165 | ebond = 6.51894640503856 | eexcv = 0.00733425278347161 | estk = -141.771456387459 | ehbond = -15.7934723917986 | exstk = -21.2180435294929 | ecoaxstk = 0 | edh = 5.65346814945609 | epot = -166.603223501472 | etot = -119.191072957956
8700  ekin = 21.9594679202501 |  erot = 25.2649305011287 | edyn = 47.2243984213788 | ebond = 7.03098245152434 | eexcv = 0.0721010859663584 | estk = -139.701127159958 | ehbond = -18.4416258640134 | exstk = -21.3334417379653 | ecoaxstk = 0 | edh = 5.70815492341364 | epot = -166.664956301033 | etot = -119.440557879654
8800  ekin = 26.5608104889112 |  erot = 22.4415749944864 | edyn = 49.0023854833976 | ebond = 6.90878165874273 | eexcv = 0.00159226700455032 | estk = -142.893855848454 | ehbond = -15.1512136737998 | exstk = -21.119152061808 | ecoaxstk = 0 | edh = 5.77570562884258 | epot = -166.478142029472 | etot = -117.475756546074
8900  ekin = 19.6787636880713 |  erot = 20.6786799161138 | edyn = 40.3574436041851 | ebond = 6.58914869671706 | eexcv = 0.0335811852385959 | estk = -139.861388613912 | ehbond = -15.9914690192744 | exstk = -21.3228836946066 | ecoaxstk = 0 | edh = 5.76636076209868 | epot = -164.786650683739 | etot = -124.429207079554
9000  ekin = 22.1202730078922 |  erot = 21.6641115635092 | edyn = 43.7843845714015 | ebond = 6.07631279605491 | eexcv = 0 | estk = -140.092583525391 | ehbond = -16.1090340969465 | exstk = -21.4664029029416 | ecoaxstk = 0 | edh = 5.81219079218377 | epot = -165.779516937041 | etot = -121.995132365639
9100  ekin = 21.5218610303638 |  erot = 23.0611284297088 | edyn = 44.5829894600726 | ebond = 7.78014955159309 | eexcv = 0.0413343907096373 | estk = -146.347132355232 | ehbond = -15.9724130335271 | exstk = -23.6091079435095 | ecoaxstk = 0 | edh = 5.94545143182186 | epot = -172.161717958144 | etot = -127.578728498071
9200  ekin = 20.5759998430549 |  erot = 20.3317901125922 | edyn = 40.9077899556471 | ebond = 5.39994496917119 | eexcv = 0.0924800702319917 | estk = -143.838036219688 | ehbond = -18.1898389080341 | exstk = -22.8875595063359 | ecoaxstk = 0 | edh = 5.92590916869422 | epot = -173.497100425961 | etot = -132.589310470314
9300  ekin = 20.8948073186962 |  erot = 22.2881552307641 | edyn = 43.1829625494603 | ebond = 6.88557795836125 | eexcv = 0 | estk = -145.435500024816 | ehbond = -16.9998109722476 | exstk = -22.4404858270212 | ecoaxstk = 0 | edh = 5.88889317514602 | epot = -172.101325690578 | etot = -128.918363141117
9400  ekin = 20.8396247182101 |  erot = 23.8028103462508 | edyn = 44.642435064461 | ebond = 7.15360030757195 | eexcv = 0 | estk = -145.199731939822 | ehbond = -17.2127264389961 | exstk = -22.5240337168404 | ecoaxstk = 0 | edh = 5.79712924499549 | epot = -171.985762543091 | etot = -127.34332747863
9500  ekin = 22.5806304344868 |  erot = 20.5044599858707 | edyn = 43.0850904203575 | ebond = 6.29870878907 | eexcv = 0.0129295976769479 | estk = -142.859535258515 | ehbond = -17.0777736941056 | exstk = -21.0953940451492 | ecoaxstk = 0 | edh = 5.725314482116 | epot = -168.995750128906 | etot = -125.910659708549
9600  ekin = 21.5055426569454 |  erot = 21.6426260115107 | edyn = 43.1481686684561 | ebond = 7.34515330480571 | eexcv = 0.0576069665262903 | estk = -141.14911423651 | ehbond = -15.9775397479056 | exstk = -22.2040121199009 | ecoaxstk = 0 | edh = 5.67846779931704 | epot = -166.249438033667 | etot = -123.101269365211
9700  ekin = 21.3759177326968 |  erot = 24.1221937896417 | edyn = 45.4981115223386 | ebond = 7.4685221030162 | eexcv = 0.00811971374335162 | estk = -139.825396167227 | ehbond = -19.0538644129527 | exstk = -22.8399449562845 | ecoaxstk = 0 | edh = 5.61115005805273 | epot = -168.631413661652 | etot = -123.133302139313
9800  ekin = 21.0030230018696 |  erot = 19.8770063861236 | edyn = 40.8800293879932 | ebond = 6.20149292779729 | eexcv = 0 | estk = -138.274459820236 | ehbond = -18.6222387237013 | exstk = -20.9191844880933 | ecoaxstk = 0 | edh = 5.51764292379493 | epot = -166.096747180438 | etot = -125.216717792445
9900  ekin = 23.2908866812573 |  erot = 21.5198728806464 | edyn = 44.8107595619037 | ebond = 7.60791127072994 | eexcv = 0 | estk = -140.40552522288 | ehbond = -18.5774703389379 | exstk = -22.6125611190393 | ecoaxstk = 0 | edh = 5.51206961842086 | epot = -168.475575791706 | etot = -123.664816229803
10000  ekin = 22.814894274243 |  erot = 22.054520257749 | edyn = 44.869414531992 | ebond = 7.34326272734521 | eexcv = 0 | estk = -138.407474138046 | ehbond = -18.2489623438703 | exstk = -22.3706311062527 | ecoaxstk = 0 | edh = 5.52739005745694 | epot = -166.156414803367 | etot = -121.287000271375
10100  ekin = 21.9578362511875 |  erot = 21.3891190827007 | edyn = 43.3469553338882 | ebond = 7.2903663326564 | eexcv = 0 | estk = -138.756950648249 | ehbond = -18.9769800984874 | exstk = -21.1426462211361 | ecoaxstk = 0 | edh = 5.57989460185425 | epot = -166.006316033362 | etot = -122.659360699473
10200  ekin = 21.6802257461122 |  erot = 22.1752003544021 | edyn = 43.8554261005143 | ebond = 6.88770561727326 | eexcv = 0 | estk = -139.101515348358 | ehbond = -17.8380918835567 | exstk = -20.5852700546368 | ecoaxstk = 0 | edh = 5.75750694602523 | epot = -164.879664723253 | etot = -121.024238622739
10300  ekin = 21.7110511302271 |  erot = 19.6434461660418 | edyn = 41.3544972962689 | ebond = 6.80787122410251 | eexcv = 0.000155138246404392 | estk = -137.762489027437 | ehbond = -18.2430314442305 | exstk = -21.4605634657653 | ecoaxstk = 0 | edh = 5.74193906310272 | epot = -164.916118511982 | etot = -123.561621215713
10400  ekin = 20.7457006025005 |  erot = 22.7107894129037 | edyn = 43.4564900154041 | ebond = 7.15905893652656 | eexcv = 0 | estk = -136.754654802999 | ehbond = -19.9235982173256 | exstk = -21.1262078342925 | ecoaxstk = 0 | edh = 5.75482529996325 | epot = -164.890576618127 | etot = -121.434086602723
10500  ekin = 20.3220048451656 |  erot = 23.8542278318223 | edyn = 44.1762326769879 | ebond = 6.55829707791681 | eexcv = 0 | estk = -140.422139939875 | ehbond = -19.3301620473068 | exstk = -22.1795376676741 | ecoaxstk = 0 | edh = 5.75630650292972 | epot = -169.617236074009 | etot = -125.441003397021
10600  ekin = 20.297076941292 |  erot = 21.7094111478699 | edyn = 42.0064880891618 | ebond = 7.75444417416164 | eexcv = 0 | estk = -140.97287448079 | ehbond = -17.9068666971804 | exstk = -21.4603490782927 | ecoaxstk = 0 | edh = 5.70236219684655 | epot = -166.883283885255 | etot = -124.876795796093
10700  ekin = 21.7070047911652 |  erot = 21.6870052706525 | edyn = 43.3940100618177 | ebond = 7.60862839572512 | eexcv = 0.00807120970429981 | estk = -141.342293619165 | ehbond = -16.931594626831 | exstk = -21.1811514099704 | ecoaxstk = 0 | edh = 5.79946336608629 | epot = -166.038876684451 | etot = -122.644866622633
10800  ekin = 23.5344431444188 |  erot = 21.6286046135099 | edyn = 45.1630477579286 | ebond = 6.14142733188619 | eexcv = 0.134732342029906 | estk = -138.711230637183 | ehbond = -20.7894427136436 | exstk = -20.9226754376327 | ecoaxstk = 0 | edh = 5.77056126213885 | epot = -168.376627852404 | etot = -123.213580094476
10900  ekin = 22.9068339647335 |  erot = 22.2228759599807 | edyn = 45.1297099247142 | ebond = 6.05952736944622 | eexcv = 0 | estk = -140.015877169162 | ehbond = -17.8628507509346 | exstk = -21.7642995419617 | ecoaxstk = 0 | edh = 5.70767960771442 | epot = -167.875820484897 | etot = -122.746110560183
11000  ekin = 23.3226521946919 |  erot = 20.1496585457226 | edyn = 43.4723107404145 | ebond = 7.88694476024059 | eexcv = 0 | estk = -138.385057633807 | ehbond = -19.7190431332561 | exstk = -22.0009768592985 | ecoaxstk = 0 | edh = 5.78017669749535 | epot = -166.437956168626 | etot = -122.965645428211
11100  ekin = 25.0585864509521 |  erot = 21.2670972984628 | edyn = 46.3256837494149 | ebond = 7.59944064292415 | eexcv = 0.00637183366078385 | estk = -140.681694021832 | ehbond = -18.6803201434251 | exstk = -21.4381588011709 | ecoaxstk = 0 | edh = 5.79555815784744 | epot = -167.398802331995 | etot = -121.07311858258
11200  ekin = 24.9948617733781 |  erot = 21.9849527615946 | edyn = 46.9798145349727 | ebond = 7.52984976133599 | eexcv = 0.0255169010126767 | estk = -139.563038985956 | ehbond = -19.4548777002053 | exstk = -21.982255498757 | ecoaxstk = 0 | edh = 5.58987244402039 | epot = -167.85493307855 | etot = -120.875118543577
11300  ekin = 24.5885539517324 |  erot = 22.1460072106469 | edyn = 46.7345611623793 | ebond = 8.79080615122423 | eexcv = 0 | estk = -139.768447557162 | ehbond = -18.9442847462189 | exstk = -22.8920606562588 | ecoaxstk = 0 | edh = 5.51057573703618 | epot = -167.303411071379 | etot = -120.568849909
11400  ekin = 22.6032250078618 |  erot = 22.4555177400012 | edyn = 45.058742747863 | ebond = 7.86846291352356 | eexcv = 0.0351298227216783 | estk = -140.272450149666 | ehbond = -19.6035001763034 | exstk = -21.5695741708831 | ecoaxstk = 0 | edh = 5.48789200570242 | epot = -168.054039754905 | etot = -122.995297007042
11500  ekin = 22.4734633342143 |  erot = 24.9289185141846 | edyn = 47.4023818483989 | ebond = 8.27872570302731 | eexcv = 0 | estk = -140.375831887767 | ehbond = -19.4601498374533 | exstk = -21.7144093797779 | ecoaxstk = 0 | edh = 5.57332236869901 | epot = -167.698343033271 | etot = -120.295961184872
11600  ekin = 21.3283949552607 |  erot = 21.2050772815867 | edyn = 42.5334722368474 | ebond = 7.3226488908946 | eexcv = 0 | estk = -137.938714272919 | ehbond = -21.0432310775925 | exstk = -22.4760106175771 | ecoaxstk = 0 | edh = 5.60288620560448 | epot = -168.532420871589 | etot = -125.998948634742
11700  ekin = 22.2389520503376 |  erot = 21.5097488959611 | edyn = 43.7487009462987 | ebond = 6.6460771577108 | eexcv = 0.0816568222248546 | estk = -138.991649503198 | ehbond = -22.2117305099879 | exstk = -22.0406740445558 | ecoaxstk = 0 | edh = 5.62844185149349 | epot = -170.887878226313 | etot = -127.139177280014
11800  ekin = 21.5566894646988 |  erot = 21.7613242194407 | edyn = 43.3180136841395 | ebond = 6.21119145965714 | eexcv = 0 | estk = -138.905679717882 | ehbond = -22.1003139861555 | exstk = -21.864105082183 | ecoaxstk = 0 | edh = 5.58483240084236 | epot = -171.074074925721 | etot = -127.756061241582
11900  ekin = 21.2119922262855 |  erot = 20.7454376300093 | edyn = 41.9574298562948 | ebond = 7.30724512699496 | eexcv = 0.0213625994439216 | estk = -142.185233012105 | ehbond = -22.2121498256954 | exstk = -20.1111937328789 | ecoaxstk = 0 | edh = 5.75629032183596 | epot = -171.423678522404 | etot = -129.46624866611
12000  ekin = 21.4795761915871 |  erot = 21.9160139376152 | edyn = 43.3955901292023 | ebond = 7.72769456125259 | eexcv = 0 | estk = -139.763375768371 | ehbond = -24.9245079680249 | exstk = -21.6307815547162 | ecoaxstk = 0 | edh = 5.64069800399786 | epot = -172.950272725861 | etot = -129.554682596659
12100  ekin = 21.5083572907553 |  erot = 21.9362450703649 | edyn = 43.4446023611202 | ebond = 7.37327475107126 | eexcv = 0.030760873213991 | estk = -138.848943680677 | ehbond = -23.8720501935495 | exstk = -22.890834345486 | ecoaxstk = 0 | edh = 5.56247223790304 | epot = -172.645320357524 | etot = -129.200717996404
12200  ekin = 20.5772056235655 |  erot = 22.1126988254324 | edyn = 42.6899044489979 | ebond = 5.97056272019195 | eexcv = 0.0851521020256981 | estk = -138.43464407542 | ehbond = -22.7668302875495 | exstk = -21.5150238898536 | ecoaxstk = 0 | edh = 5.66699423047279 | epot = -170.993789200132 | etot = -128.303884751134
12300  ekin = 20.7995762840417 |  erot = 23.2002982546474 | edyn = 43.9998745386891 | ebond = 7.29040719939488 | eexcv = 3.57739581123272e-05 | estk = -139.370390897982 | ehbond = -22.4390555259992 | exstk = -22.9456755872056 | ecoaxstk = 0 | edh = 5.71507471040017 | epot = -171.749604327433 | etot = -127.749729788744
12400  ekin = 20.2353799790201 |  erot = 22.6713737085881 | edyn = 42.9067536876082 | ebond = 7.65982362053022 | eexcv = 0.100815599875134 | estk = -138.499626123999 | ehbond = -22.6137752138053 | exstk = -22.1782378318587 | ecoaxstk = 0 | edh = 5.68909155709058 | epot = -169.841908392167 | etot = -126.935154704559
12500  ekin = 25.4469713616727 |  erot = 24.2145319013092 | edyn = 49.661503262982 | ebond = 6.61849260156598 | eexcv = 0 | estk = -142.916091429174 | ehbond = -22.5084290053004 | exstk = -22.7730909725893 | ecoaxstk = 0 | edh = 5.66270632660215 | epot = -175.916412478896 | etot = -126.254909215914
12600  ekin = 21.0712190191645 |  erot = 22.4368780836607 | edyn = 43.5080971028252 | ebond = 7.73619318705861 | eexcv = 0 | estk = -139.146159075716 | ehbond = -23.3456866725751 | exstk = -22.3397886496035 | ecoaxstk = 0 | edh = 5.62366523555364 | epot = -171.471775975282 | etot = -127.963678872457
12700  ekin = 22.9107568878553 |  erot = 24.1358013012965 | edyn = 47.0465581891518 | ebond = 6.98456705696713 | eexcv = 0 | estk = -141.501293791473 | ehbond = -24.0973602529528 | exstk = -21.6802839682222 | ecoaxstk = 0 | edh = 5.56814273572756 | epot = -174.726228219953 | etot = -127.679670030801
12800  ekin = 24.2694941901969 |  erot = 21.8719307440826 | edyn = 46.1414249342795 | ebond = 7.265013225783 | eexcv = 0 | estk = -137.147556179621 | ehbond = -21.970101052622 | exstk = -24.0279243489009 | ecoaxstk = 0 | edh = 5.47270589065916 | epot = -170.407862464702 | etot = -124.266437530422
12900  ekin = 23.9242969595406 |  erot = 21.4835997029214 | edyn = 45.407896662462 | ebond = 7.22153219540884 | eexcv = 0.0228553459266533 | estk = -132.726642778516 | ehbond = -22.723697588157 | exstk = -22.7914451164754 | ecoaxstk = 0 | edh = 5.49574395601524 | epot = -165.501653985798 | etot = -120.093757323336
13000  ekin = 22.4354923284768 |  erot = 21.8908678802208 | edyn = 44.3263602086976 | ebond = 7.37254451011655 | eexcv = 0 | estk = -134.168173590467 | ehbond = -23.9913708244404 | exstk = -22.4741755406416 | ecoaxstk = 0 | edh = 5.58023640426371 | epot = -167.680939041168 | etot = -123.354578832471
13100  ekin = 20.3592085793293 |  erot = 23.007210059345 | edyn = 43.3664186386742 | ebond = 8.11545500803901 | eexcv = 0.0515681931795631 | estk = -140.377096190204 | ehbond = -25.3946644422903 | exstk = -23.1973341991884 | ecoaxstk = 0 | edh = 5.6069196951795 | epot = -175.195151935284 | etot = -131.82873329661
13200  ekin = 23.0992811319816 |  erot = 21.9428245153784 | edyn = 45.04210564736 | ebond = 7.00771181705392 | eexcv = 0 | estk = -142.843988308873 | ehbond = -24.4845945727298 | exstk = -22.3877902590289 | ecoaxstk = 0 | edh = 5.63313056681916 | epot = -177.075530756758 | etot = -132.033425109398
13300  ekin = 22.058330826916 |  erot = 22.2835826232096 | edyn = 44.3419134501256 | ebond = 6.81817503223113 | eexcv = 0.0153800451545728 | estk = -142.228900080101 | ehbond = -22.4397659100128 | exstk = -22.7866361530327 | ecoaxstk = 0 | edh = 5.68825476938554 | epot = -174.933492296376 | etot = -130.59157884625
13400  ekin = 22.865927015453 |  erot = 22.5375560139447 | edyn = 45.4034830293977 | ebond = 7.22921494478288 | eexcv = 0 | estk = -145.674095525573 | ehbond = -24.4620726139894 | exstk = -21.0601412435788 | ecoaxstk = 0 | edh = 5.7465805313576 | epot = -178.220513907001 | etot = -132.817030877603
13500  ekin = 24.245026277941 |  erot = 22.5156664371206 | edyn = 46.7606927150617 | ebond = 6.91527689986387 | eexcv = 0.0295996581079331 | estk = -141.788520613272 | ehbond = -25.4814699525187 | exstk = -22.3246905402234 | ecoaxstk = 0 | edh = 5.80271417146233 | epot = -176.84709037658 | etot = -130.086397661518
13600  ekin = 22.627483537613 |  erot = 22.2787532633085 | edyn = 44.9062368009215 | ebond = 7.39639020324627 | eexcv = 0.0029633386988291 | estk = -136.919763879417 | ehbond = -23.502421441132 | exstk = -22.8632152731451 | ecoaxstk = 0 | edh = 5.69255802583284 | epot = -170.193489025916 | etot = -125.287252224994
13700  ekin = 22.7057588014102 |  erot = 20.6901906785733 | edyn = 43.3959494799836 | ebond = 5.84633751229199 | eexcv = 0.0731037515093256 | estk = -139.879916950329 | ehbond = -25.719651662061 | exstk = -20.0919245602263 | ecoaxstk = 0 | edh = 5.65229834425723 | epot = -174.119753564558 | etot = -130.723804084575
13800  ekin = 25.0959993029632 |  erot = 22.4721120358966 | edyn = 47.5681113388598 | ebond = 7.52321101555719 | eexcv = 0 | estk = -142.953788563869 | ehbond = -26.3561813612851 | exstk = -20.520328540109 | ecoaxstk = 0 | edh = 5.66929989020801 | epot = -176.637787559498 | etot = -129.069676220638
13900  ekin = 22.3905710162486 |  erot = 23.611047231072 | edyn = 46.0016182473207 | ebond = 5.90315208918465 | eexcv = 0.0297573887447031 | estk = -139.920224826348 | ehbond = -24.5073815996882 | exstk = -20.4186901301606 | ecoaxstk = 0 | edh = 5.81694175116351 | epot = -173.096445327104 | etot = -127.094827079783
14000  ekin = 25.8949797929956 |  erot = 22.7757757843639 | edyn = 48.6707555773596 | ebond = 6.82527345291267 | eexcv = 0 | estk = -139.286685611447 | ehbond = -25.3786391932387 | exstk = -22.1722902952045 | ecoaxstk = 0 | edh = 5.81604138694734 | epot = -174.196300260031 | etot = -125.525544682671
14100  ekin = 23.6774874866842 |  erot = 24.2386756475374 | edyn = 47.9161631342216 | ebond = 7.8844031504788 | eexcv = 0.00392746911188602 | estk = -140.781546880631 | ehbond = -27.344962008869 | exstk = -22.0279676913203 | ecoaxstk = 0 | edh = 5.81232598060988 | epot = -176.45381998062 | etot = -128.537656846398
14200  ekin = 22.5436385296188 |  erot = 21.4478627103077 | edyn = 43.9915012399265 | ebond = 6.75792410381902 | eexcv = 0.155263621265476 | estk = -138.765271174649 | ehbond = -25.0871047742716 | exstk = -21.6038233567591 | ecoaxstk = 0 | edh = 5.81546395408646 | epot = -172.727547626508 | etot = -128.736046386582
14300  ekin = 23.7713342817949 |  erot = 19.7785178599519 | edyn = 43.5498521417467 | ebond = 6.23403384152969 | eexcv = 0.00470692266495053 | estk = -138.915915317793 | ehbond = -27.0661739829911 | exstk = -22.2987513476382 | ecoaxstk = 0 | edh = 5.7678916577218 | epot = -176.274208226506 | etot = -132.724356084759
14400  ekin = 20.6157569818398 |  erot = 22.6853528389142 | edyn = 43.301109820754 | ebond = 7.71363128898245 | eexcv = 0 | estk = -142.038423747946 | ehbond = -25.1401883815703 | exstk = -23.6736733054135 | ecoaxstk = 0 | edh = 5.64358886760886 | epot = -177.495065278339 | etot = -134.193955457585
14500  ekin = 20.3178611935393 |  erot = 17.2744843492647 | edyn = 37.592345542804 | ebond = 5.96784782294245 | eexcv = 0 | estk = -140.909052795095 | ehbond = -25.7280191634795 | exstk = -22.7576189145611 | ecoaxstk = 0 | edh = 5.70406021004584 | epot = -177.722782840148 | etot = -140.130437297344
14600  ekin = 22.8574511389986 |  erot = 20.9495830034088 | edyn = 43.8070341424074 | ebond = 8.28771402891057 | eexcv = 0 | estk = -142.139967453235 | ehbond = -25.7580211914714 | exstk = -22.927181001034 | ecoaxstk = 0 | edh = 5.69521764468867 | epot = -176.842237972141 | etot = -133.035203829734
14700  ekin = 22.5955985777795 |  erot = 21.8750708798279 | edyn = 44.4706694576075 | ebond = 7.31470613496878 | eexcv = 0 | estk = -139.984234772125 | ehbond = -25.5479418504268 | exstk = -22.5550268687129 | ecoaxstk = 0 | edh = 5.58694838105055 | epot = -175.185548975245 | etot = -130.714879517638
14800  ekin = 22.045850298589 |  erot = 23.3415441897847 | edyn = 45.3873944883737 | ebond = 6.83543878410018 | eexcv = 0.000401456662370703 | estk = -140.242738666021 | ehbond = -25.0699133246342 | exstk = -22.3176580791909 | ecoaxstk = 0 | edh = 5.62301380435838 | epot = -175.171456024725 | etot = -129.784061536351
14900  ekin = 19.2973487440282 |  erot = 20.8643839988521 | edyn = 40.1617327428804 | ebond = 7.60646951497885 | eexcv = 0 | estk = -141.76203334812 | ehbond = -26.2596317032124 | exstk = -21.8109004428514 | ecoaxstk = 0 | edh = 5.5958131403718 | epot = -176.630282838833 | etot = -136.468550095953
15000  ekin = 19.0555970748573 |  erot = 20.6471854160334 | edyn = 39.7027824908907 | ebond = 5.50762279130468 | eexcv = 0 | estk = -144.656595544302 | ehbond = -23.8622736339208 | exstk = -21.4596235226633 | ecoaxstk = 0 | edh = 5.70536245637409 | epot = -178.765507453207 | etot = -139.062724962316
15100  ekin = 19.8557613977913 |  erot = 22.266372626715 | edyn = 42.1221340245062 | ebond = 5.86787655101257 | eexcv = 0 | estk = -144.131398469745 | ehbond = -24.4021247974474 | exstk = -20.4134544084221 | ecoaxstk = 0 | edh = 5.59455729983733 | epot = -177.484543824765 | etot = -135.362409800258
15200  ekin = 20.2250919006727 |  erot = 20.9491726899688 | edyn = 41.1742645906415 | ebond = 7.33997928722451 | eexcv = 0 | estk = -141.551782484242 | ehbond = -25.6575352299118 | exstk = -22.022125215451 | ecoaxstk = 0 | edh = 5.56194665175194 | epot = -176.329516990628 | etot = -135.155252399987
15300  ekin = 19.8301121208235 |  erot = 22.1070460695469 | edyn = 41.9371581903704 | ebond = 6.54686582412856 | eexcv = 0 | estk = -140.830095286727 | ehbond = -28.0026824845684 | exstk = -22.9662441926028 | ecoaxstk = 0 | edh = 5.54014018088354 | epot = -179.712015958887 | etot = -137.774857768516
15400  ekin = 20.9084406066607 |  erot = 21.393834289157 | edyn = 42.3022748958177 | ebond = 7.55072035721626 | eexcv = 0 | estk = -142.47928575708 | ehbond = -26.7421450236492 | exstk = -23.170234045328 | ecoaxstk = 0 | edh = 5.55718610030558 | epot = -179.283758368535 | etot = -136.981483472718
15500  ekin = 23.4689507024253 |  erot = 23.3930795758175 | edyn = 46.8620302782428 | ebond = 5.39883192629185 | eexcv = 0.229740082025125 | estk = -145.429796718316 | ehbond = -25.9397889022272 | exstk = -24.0622153173965 | ecoaxstk = 0 | edh = 5.59331477174565 | epot = -184.209914157877 | etot = -137.347883879634
15600  ekin = 22.0096964816239 |  erot = 21.9022538383122 | edyn = 43.9119503199361 | ebond = 7.41873067245765 | eexcv = 0 | estk = -142.364679089451 | ehbond = -28.0641815453905 | exstk = -23.1005353076403 | ecoaxstk = 0 | edh = 5.53135701992383 | epot = -180.579308250101 | etot = -136.667357930165
15700  ekin = 21.7669768511099 |  erot = 20.544921925813 | edyn = 42.3118987769229 | ebond = 6.61748185255318 | eexcv = 0.127922677107985 | estk = -139.025417774018 | ehbond = -26.0456719867197 | exstk = -22.3365741671733 | ecoaxstk = 0 | edh = 5.5957654957892 | epot = -175.066493902461 | etot = -132.754595125538
15800  ekin = 23.3884151951425 |  erot = 20.0291406374628 | edyn = 43.4175558326054 | ebond = 7.17090389840685 | eexcv = 0 | estk = -142.068859794691 | ehbond = -26.6292724568562 | exstk = -23.7358991498613 | ecoaxstk = 0 | edh = 5.5999516447736 | epot = -179.663175858228 | etot = -136.245620025622
15900  ekin = 22.5134853087383 |  erot = 22.976915411691 | edyn = 45.4904007204293 | ebond = 8.06853143556499 | eexcv = 0 | estk = -139.312516695947 | ehbond = -26.2616323536131 | exstk = -21.26730668625 | ecoaxstk = 0 | edh = 5.6708457524139 | epot = -173.102078547831 | etot = -127.611677827402
16000  ekin = 18.9529661301336 |  erot = 20.7506660094738 | edyn = 39.7036321396074 | ebond = 7.91298454681217 | eexcv = 0.304192431475549 | estk = -139.830889848428 | ehbond = -25.4894877789621 | exstk = -20.5292311458879 | ecoaxstk = 0 | edh = 5.93209226644436 | epot = -171.700339528546 | etot = -131.996707388939
16100  ekin = 20.0604857643069 |  erot = 22.6877256178866 | edyn = 42.7482113821935 | ebond = 6.60922523387743 | eexcv = 0 | estk = -142.257976541124 | ehbond = -25.6730019913114 | exstk = -21.0158957035856 | ecoaxstk = 0 | edh = 5.83362639602296 | epot = -176.50402260612 | etot = -133.755811223927
16200  ekin = 22.7633708325028 |  erot = 21.7029759416608 | edyn = 44.4663467741636 | ebond = 6.79874264395493 | eexcv = 0 | estk = -144.682075017887 | ehbond = -25.8329507268315 | exstk = -21.6754223227098 | ecoaxstk = 0 | edh = 5.75744449177091 | epot = -179.634260931703 | etot = -135.167914157539
16300  ekin = 23.120839598392 |  erot = 23.5399431629766 | edyn = 46.6607827613686 | ebond = 5.94219244687299 | eexcv = 0.00568133240357584 | estk = -143.716985703347 | ehbond = -26.98608749481 | exstk = -22.9998739783412 | ecoaxstk = 0 | edh = 5.60641790236445 | epot = -182.148655494857 | etot = -135.487872733489
16400  ekin = 23.0201629907214 |  erot = 21.6017708716554 | edyn = 44.6219338623768 | ebond = 7.48116762459643 | eexcv = 0.0665107487609045 | estk = -142.450260112624 | ehbond = -28.8332602517286 | exstk = -22.0324318678154 | ecoaxstk = 0 | edh = 5.63164794775519 | epot = -180.136625911056 | etot = -135.514692048679
16500  ekin = 22.1092861374405 |  erot = 23.3557489644655 | edyn = 45.4650351019059 | ebond = 6.24778896789255 | eexcv = 0 | estk = -137.977641276487 | ehbond = -29.2918865993618 | exstk = -21.32046637139 | ecoaxstk = 0 | edh = 5.63173414311355 | epot = -176.710471136233 | etot = -131.245436034327
16600  ekin = 24.9130199663375 |  erot = 23.5637595068528 | edyn = 48.4767794731902 | ebond = 5.32108183136989 | eexcv = 0.00342817150168208 | estk = -136.600819686343 | ehbond = -28.3399371785491 | exstk = -20.523086667321 | ecoaxstk = 0 | edh = 5.62180899711798 | epot = -174.517524532224 | etot = -126.040745059033
16700  ekin = 21.9948558972741 |  erot = 23.1905533258115 | edyn = 45.1854092230856 | ebond = 6.28858563236152 | eexcv = 0.0258261543085787 | estk = -136.458337695424 | ehbond = -28.2799217874026 | exstk = -22.071457253119 | ecoaxstk = 0 | edh = 5.49469538507196 | epot = -175.000609564204 | etot = -129.815200341118
16800  ekin = 23.0909094673948 |  erot = 23.2860981162273 | edyn = 46.3770075836221 | ebond = 5.77699262738551 | eexcv = 0 | estk = -141.072034746459 | ehbond = -25.2465914353859 | exstk = -23.2721138773513 | ecoaxstk = 0 | edh = 5.56308401344345 | epot = -178.250663418368 | etot = -131.873655834746
16900  ekin = 21.6021674204586 |  erot = 20.8894084166504 | edyn = 42.4915758371091 | ebond = 7.76704064966713 | eexcv = 0 | estk = -138.535471802712 | ehbond = -29.41133576423 | exstk = -21.3663769639925 | ecoaxstk = 0 | edh = 5.5736904671735 | epot = -175.972453414094 | etot = -133.480877576984
17000  ekin = 19.4926433232703 |  erot = 23.13098184119 | edyn = 42.6236251644603 | ebond = 7.66885367573225 | eexcv = 0 | estk = -139.259156051375 | ehbond = -28.6637750466937 | exstk = -20.8407181274237 | ecoaxstk = 0 | edh = 5.44826182185237 | epot = -175.646533727908 | etot = -133.022908563447
17100  ekin = 20.5774764612095 |  erot = 25.1089065859525 | edyn = 45.686383047162 | ebond = 6.31942198529646 | eexcv = 0 | estk = -141.652847119379 | ehbond = -26.9203358196758 | exstk = -21.5814689256794 | ecoaxstk = 0 | edh = 5.57289718448129 | epot = -178.262332694956 | etot = -132.575949647794
17200  ekin = 19.5554723599013 |  erot = 24.1891747587786 | edyn = 43.7446471186799 | ebond = 7.52574119246197 | eexcv = 0 | estk = -142.64369443016 | ehbond = -25.947024681451 | exstk = -22.5725916333389 | ecoaxstk = 0 | edh = 5.62762937492143 | epot = -178.009940177567 | etot = -134.265293058887
17300  ekin = 24.0114278203895 |  erot = 20.2508518585742 | edyn = 44.2622796789638 | ebond = 7.51625426872336 | eexcv = 0 | estk = -144.351143271253 | ehbond = -24.4780986818495 | exstk = -21.6409331828552 | ecoaxstk = 0 | edh = 5.76992748890701 | epot = -177.183993378327 | etot = -132.921713699363
17400  ekin = 20.7034693503955 |  erot = 21.9432856496548 | edyn = 42.6467550000503 | ebond = 7.50108855099336 | eexcv = 0 | estk = -141.746385024536 | ehbond = -22.5779148567796 | exstk = -24.4953840291783 | ecoaxstk = 0 | edh = 5.74132302100288 | epot = -175.577272338497 | etot = -132.930517338447
17500  ekin = 20.3315657922803 |  erot = 21.9716553282193 | edyn = 42.3032211204996 | ebond = 7.01164792145436 | eexcv = 0.0873983240286041 | estk = -143.184057924997 | ehbond = -23.773070490219 | exstk = -21.6686931963384 | ecoaxstk = 0 | edh = 5.77374632667558 | epot = -175.753029039396 | etot = -133.449807918897
17600  ekin = 22.6541106625705 |  erot = 22.2510007444188 | edyn = 44.9051114069894 | ebond = 6.48147158999909 | eexcv = 0 | estk = -144.49440119703 | ehbond = -26.7965900262355 | exstk = -21.780175805233 | ecoaxstk = 0 | edh = 5.83155717059085 | epot = -180.758138267908 | etot = -135.853026860919
17700  ekin = 23.2646379291728 |  erot = 21.3628874446476 | edyn = 44.6275253738204 | ebond = 5.72105342731214 | eexcv = 0 | estk = -139.245865395452 | ehbond = -26.6161563861478 | exstk = -22.285626051299 | ecoaxstk = 0 | edh = 5.79111480618664 | epot = -176.6354795994 | etot = -132.007954225579
17800  ekin = 23.5017314862718 |  erot = 22.7113859950913 | edyn = 46.2131174813631 | ebond = 7.65311955821304 | eexcv = 0.0855017398704596 | estk = -141.155109814223 | ehbond = -22.6578411652927 | exstk = -22.1567698874449 | ecoaxstk = 0 | edh = 5.77464429345669 | epot = -172.456455275421 | etot = -126.243337794058
17900  ekin = 21.4069245996512 |  erot = 21.6726493543411 | edyn = 43.0795739539923 | ebond = 7.09088638116924 | eexcv = 0 | estk = -137.160176219283 | ehbond = -27.2297764621625 | exstk = -21.4250337709342 | ecoaxstk = 0 | edh = 5.79492104513312 | epot = -172.929179026077 | etot = -129.849605072085
18000  ekin = 24.0930769527503 |  erot = 22.3342482977567 | edyn = 46.4273252505071 | ebond = 5.95712612022567 | eexcv = 0.0686002232193261 | estk = -139.595816549981 | ehbond = -25.9052186624534 | exstk = -21.392320385872 | ecoaxstk = 0 | edh = 5.82646466113423 | epot = -175.041164593727 | etot = -128.61383934322
18100  ekin = 21.2620617970074 |  erot = 21.4205793210355 | edyn = 42.6826411180428 | ebond = 6.92650168889448 | eexcv = 0 | estk = -139.921542205008 | ehbond = -25.3547066541751 | exstk = -21.223676494743 | ecoaxstk = 0 | edh = 5.79010617759422 | epot = -173.783317487437 | etot = -131.100676369394
18200  ekin = 21.4058246628191 |  erot = 22.8065036812645 | edyn = 44.2123283440836 | ebond = 5.73106651967727 | eexcv = 0.202258750631837 | estk = -143.199361634649 | ehbond = -25.6216559451275 | exstk = -22.2148424529611 | ecoaxstk = 0 | edh = 5.74451542003336 | epot = -179.358019342395 | etot = -135.145690998311
18300  ekin = 19.5597300880045 |  erot = 21.5717668956633 | edyn = 41.1314969836678 | ebond = 6.60825598934203 | eexcv = 0 | estk = -140.680402143858 | ehbond = -25.0357301210145 | exstk = -21.3713744231423 | ecoaxstk = 0 | edh = 5.7400748016059 | epot = -174.739175897067 | etot = -133.607678913399
18400  ekin = 21.1362784288381 |  erot = 22.4730083285632 | edyn = 43.6092867574013 | ebond = 6.35223381026298 | eexcv = 0.283585125320876 | estk = -142.065089143956 | ehbond = -26.4983888794477 | exstk = -21.5750322857986 | ecoaxstk = 0 | edh = 5.77926623159031 | epot = -177.723425142028 | etot = -134.114138384627
18500  ekin = 23.0228231691654 |  erot = 20.9162805917778 | edyn = 43.9391037609432 | ebond = 8.11575448046149 | eexcv = 0 | estk = -140.498085303337 | ehbond = -25.961615099891 | exstk = -22.2208026093512 | ecoaxstk = 0 | edh = 5.76206042961979 | epot = -174.802688102498 | etot = -130.863584341555
18600  ekin = 21.0069134087002 |  erot = 21.0933612784302 | edyn = 42.1002746871304 | ebond = 5.86816662863891 | eexcv = 0 | estk = -140.613972486808 | ehbond = -25.2309530831495 | exstk = -22.6964367823574 | ecoaxstk = 0 | edh = 5.82091771363762 | epot = -176.852278010038 | etot = -134.752003322908
18700  ekin = 22.5098806303785 |  erot = 22.0363595647059 | edyn = 44.5462401950844 | ebond = 6.87822168032263 | eexcv = 0.00156962986901308 | estk = -144.309522328421 | ehbond = -24.5604503490171 | exstk = -22.325967786427 | ecoaxstk = 0 | edh = 5.83985155151672 | epot = -178.476297602157 | etot = -133.930057407072
18800  ekin = 22.1119597330725 |  erot = 23.0204634106371 | edyn = 45.1324231437096 | ebond = 6.80067586681823 | eexcv = 0.027321301058799 | estk = -143.237561880065 | ehbond = -27.059876414355 | exstk = -22.6588648258608 | ecoaxstk = 0 | edh = 5.6774848640585 | epot = -180.450821088345 | etot = -135.318397944636
18900  ekin = 21.5636394151191 |  erot = 24.5490871766752 | edyn = 46.1127265917943 | ebond = 7.4637877400989 | eexcv = 0 | estk = -141.450066402344 | ehbond = -25.7237114755872 | exstk = -23.6956178015673 | ecoaxstk = 0 | edh = 5.70053907851486 | epot = -177.705068860885 | etot = -131.59234226909
19000  ekin = 22.8364090879956 |  erot = 22.7420610938647 | edyn = 45.5784701818603 | ebond = 5.06238930681595 | eexcv = 0 | estk = -140.406051059036 | ehbond = -25.8964839354272 | exstk = -23.9447829714261 | ecoaxstk = 0 | edh = 5.48278504406172 | epot = -179.702143615011 | etot = -134.123673433151
19100  ekin = 23.7926666323258 |  erot = 22.4074465717643 | edyn = 46.2001132040901 | ebond = 6.11376467187323 | eexcv = 0.0403935910026418 | estk = -143.421824372249 | ehbond = -27.4619478406456 | exstk = -23.6331778410172 | ecoaxstk = 0 | edh = 5.45176736464393 | epot = -182.911024426392 | etot = -136.710911222302
19200  ekin = 20.6960428755019 |  erot = 20.4176762974901 | edyn = 41.1137191729921 | ebond = 7.15915060284246 | eexcv = 0.0114535201161328 | estk = -139.997933062201 | ehbond = -26.7265591730038 | exstk = -22.6569490682819 | ecoaxstk = 0 | edh = 5.46307345725108 | epot = -176.747763723277 | etot = -135.634044550285
19300  ekin = 23.1882228476702 |  erot = 21.5032470734026 | edyn = 44.6914699210728 | ebond = 7.66133818621043 | eexcv = 0 | estk = -140.230651650416 | ehbond = -25.5110051650922 | exstk = -22.898223119464 | ecoaxstk = 0 | edh = 5.40572563953449 | epot = -175.572816109227 | etot = -130.881346188154
19400  ekin = 23.2647019892376 |  erot = 24.5400703127239 | edyn = 47.8047723019615 | ebond = 7.77589498125488 | eexcv = 0.0119529517388072 | estk = -138.687199704868 | ehbond = -27.1630578011441 | exstk = -23.5506213141533 | ecoaxstk = 0 | edh = 5.39305659980782 | epot = -176.219974287364 | etot = -128.415201985402
19500  ekin = 20.839970868102 |  erot = 23.4504825808455 | edyn = 44.2904534489475 | ebond = 7.81686795547811 | eexcv = 0 | estk = -140.256986491122 | ehbond = -25.1345013281845 | exstk = -23.2965936996993 | ecoaxstk = 0 | edh = 5.40066172299125 | epot = -175.470551840536 | etot = -131.180098391589
19600  ekin = 22.2592760881582 |  erot = 23.739779857918 | edyn = 45.9990559460762 | ebond = 7.96468850959447 | eexcv = 0 | estk = -140.609172973201 | ehbond = -26.785417742677 | exstk = -22.2268341358767 | ecoaxstk = 0 | edh = 5.42108171776525 | epot = -176.235654624395 | etot = -130.236598678319
19700  ekin = 21.0690319031515 |  erot = 22.1658693463168 | edyn = 43.2349012494683 | ebond = 7.60987414213877 | eexcv = 0.0482004484841893 | estk = -140.960853768555 | ehbond = -28.3227698058119 | exstk = -21.3605184112874 | ecoaxstk = 0 | edh = 5.48632691076186 | epot = -177.499740484269 | etot = -134.264839234801
19800  ekin = 21.3661695638235 |  erot = 24.9764056204863 | edyn = 46.3425751843098 | ebond = 6.51800984134665 | eexcv = 0.000654415054980092 | estk = -143.749186366385 | ehbond = -28.1194842864995 | exstk = -21.6983047017205 | ecoaxstk = 0 | edh = 5.46539503606915 | epot = -181.582916062134 | etot = -135.240340877824
19900  ekin = 20.5132341733506 |  erot = 22.4860300399791 | edyn = 42.9992642133297 | ebond = 6.01511593664074 | eexcv = 0.00092661356300028 | estk = -140.36535805938 | ehbond = -29.9235284452935 | exstk = -21.5314764736012 | ecoaxstk = 0 | edh = 5.35569439170757 | epot = -180.448626036363 | etot = -137.449361823033
20000  ekin = 21.3855467875163 |  erot = 21.6895603468198 | edyn = 43.075107134336 | ebond = 6.48590114523571 | eexcv = 0 | estk = -138.400858296311 | ehbond = -31.2003281620387 | exstk = -21.2747178528813 | ecoaxstk = 0 | edh = 5.36142554388683 | epot = -179.028577622108 | etot = -135.953470487772
20100  ekin = 22.7313781194784 |  erot = 22.1693083281885 | edyn = 44.9006864476669 | ebond = 7.24919116700503 | eexcv = 0.0464936388266214 | estk = -144.730123752763 | ehbond = -27.7864375056415 | exstk = -21.572367691911 | ecoaxstk = 0 | edh = 5.51910881908462 | epot = -181.274135325399 | etot = -136.373448877732
20200  ekin = 18.2438258644354 |  erot = 22.5263527048588 | edyn = 40.7701785692942 | ebond = 5.77345708916534 | eexcv = 0 | estk = -143.540452253235 | ehbond = -29.0656116887025 | exstk = -21.703207391694 | ecoaxstk = 0 | edh = 5.53387165525573 | epot = -183.00194258921 | etot = -142.231764019916
20300  ekin = 22.4986462018858 |  erot = 20.7561460478412 | edyn = 43.254792249727 | ebond = 6.86891030086029 | eexcv = 0 | estk = -142.801913753304 | ehbond = -33.2701043079054 | exstk = -21.8614490619711 | ecoaxstk = 0 | edh = 5.35000239256421 | epot = -185.714554429756 | etot = -142.459762180029
20400  ekin = 22.4741794792356 |  erot = 22.2485275247632 | edyn = 44.7227070039988 | ebond = 6.44601387875895 | eexcv = 0 | estk = -142.054776971884 | ehbond = -32.9145076182723 | exstk = -23.1204977533542 | ecoaxstk = 0 | edh = 5.39120358521206 | epot = -186.252564879539 | etot = -141.52985787554
20500  ekin = 24.4088272585602 |  erot = 21.7172832169293 | edyn = 46.1261104754895 | ebond = 6.04679070288382 | eexcv = 0.046064872897091 | estk = -140.997683698223 | ehbond = -33.3037332403613 | exstk = -22.8222952302369 | ecoaxstk = 0 | edh = 5.55263118967618 | epot = -185.478225403364 | etot = -139.352114927875
20600  ekin = 23.2491592003947 |  erot = 22.0944822276193 | edyn = 45.343641428014 | ebond = 7.36214568570168 | eexcv = 0.124023772881899 | estk = -139.247665015124 | ehbond = -31.9364049445342 | exstk = -23.3373999045081 | ecoaxstk = 0 | edh = 5.5852077091516 | epot = -181.450092696431 | etot = -136.106451268417
20700  ekin = 23.1751077470162 |  erot = 20.3485743524076 | edyn = 43.5236820994237 | ebond = 6.23590763243775 | eexcv = 0.0343610710164218 | estk = -142.799869842994 | ehbond = -29.4537576643906 | exstk = -22.472110852882 | ecoaxstk = 0 | edh = 5.60640969799069 | epot = -182.849059958822 | etot = -139.325377859398
20800  ekin = 22.3060147357867 |  erot = 22.4588448158354 | edyn = 44.7648595516221 | ebond = 8.80967290010589 | eexcv = 0 | estk = -143.918284376335 | ehbond = -31.4597557433681 | exstk = -22.6718210518465 | ecoaxstk = 0 | edh = 5.64016611667194 | epot = -183.600022154772 | etot = -138.83516260315
20900  ekin = 20.5336344043576 |  erot = 25.0177906032167 | edyn = 45.5514250075742 | ebond = 7.59978928919333 | eexcv = 0.00992010879649803 | estk = -140.979683903208 | ehbond = -30.3160227728743 | exstk = -23.2819445395837 | ecoaxstk = 0 | edh = 5.58558579487841 | epot = -181.382356022798 | etot = -135.830931015224
21000  ekin = 23.4931929285154 |  erot = 20.9908170701097 | edyn = 44.4840099986252 | ebond = 8.41152288465565 | eexcv = 0 | estk = -143.383653076165 | ehbond = -30.7192997683683 | exstk = -22.9246858701882 | ecoaxstk = 0 | edh = 5.59339382656565 | epot = -183.0227220035 | etot = -138.538712004875
21100  ekin = 22.228305161509 |  erot = 23.2842391054877 | edyn = 45.5125442669967 | ebond = 6.11414763541107 | eexcv = 0 | estk = -141.059793685818 | ehbond = -30.4386785452156 | exstk = -23.1597718444773 | ecoaxstk = 0 | edh = 5.42927295496314 | epot = -183.114823485137 | etot = -137.60227921814
21200  ekin = 23.6582230412283 |  erot = 24.0402695214054 | edyn = 47.6984925626337 | ebond = 6.78607522003075 | eexcv = 0.0254910705209587 | estk = -139.479979097435 | ehbond = -32.7105574131364 | exstk = -20.8680020487261 | ecoaxstk = 0 | edh = 5.36457653054942 | epot = -180.882395738196 | etot = -133.183903175563
21300  ekin = 24.6792761699091 |  erot = 23.7930791608118 | edyn = 48.4723553307209 | ebond = 6.12756589111884 | eexcv = 0 | estk = -139.985145370741 | ehbond = -30.7932443366866 | exstk = -22.5701967137344 | ecoaxstk = 0 | edh = 5.31760121088412 | epot = -181.903419319159 | etot = -133.431063988438
21400  ekin = 23.9031582799992 |  erot = 22.9889369990975 | edyn = 46.8920952790967 | ebond = 6.23148030628253 | eexcv = 0.00571867177140872 | estk = -139.808303682148 | ehbond = -32.6957899695164 | exstk = -24.1266716178714 | ecoaxstk = 0 | edh = 5.32589965941873 | epot = -185.067666632063 | etot = -138.175571352966
21500  ekin = 23.7477794032499 |  erot = 23.4798747325197 | edyn = 47.2276541357696 | ebond = 7.13714589157366 | eexcv = 0 | estk = -140.188545101726 | ehbond = -33.9159875524651 | exstk = -24.3535836421588 | ecoaxstk = 0 | edh = 5.24498418762094 | epot = -186.075986217155 | etot = -138.848332081385
21600  ekin = 19.4993061161219 |  erot = 22.6037382299247 | edyn = 42.1030443460466 | ebond = 6.26495106703442 | eexcv = 0 | estk = -136.569559638508 | ehbond = -35.5282705692289 | exstk = -24.0223005577098 | ecoaxstk = 0 | edh = 5.29860543203761 | epot = -184.556574266375 | etot = -142.453529920328
21700  ekin = 22.6334073114935 |  erot = 23.1754278882849 | edyn = 45.8088351997784 | ebond = 6.84095902247378 | eexcv = 0 | estk = -141.085281896074 | ehbond = -33.8076495017076 | exstk = -24.2496242080321 | ecoaxstk = 0 | edh = 5.31705856959808 | epot = -186.984538013742 | etot = -141.175702813963
21800  ekin = 22.3570696872196 |  erot = 24.7763398721329 | edyn = 47.1334095593525 | ebond = 6.23261482721819 | eexcv = 0 | estk = -139.633002556505 | ehbond = -35.0855157028429 | exstk = -22.6171753384648 | ecoaxstk = 0 | edh = 5.42907705538153 | epot = -185.674001715213 | etot = -138.540592155861
21900  ekin = 23.0265492521894 |  erot = 22.1120325123031 | edyn = 45.1385817644926 | ebond = 7.14132608658889 | eexcv = 0 | estk = -139.970959235534 | ehbond = -34.6446147113771 | exstk = -23.1680586637046 | ecoaxstk = 0 | edh = 5.47799799447262 | epot = -185.164308529554 | etot = -140.025726765062
22000  ekin = 23.1977264457771 |  erot = 21.1647563239325 | edyn = 44.3624827697096 | ebond = 6.27196635818276 | eexcv = 0 | estk = -141.795947702875 | ehbond = -33.463496492941 | exstk = -24.0137141218987 | ecoaxstk = 0 | edh = 5.49478739511913 | epot = -187.506404564413 | etot = -143.143921794703
22100  ekin = 24.5758312514827 |  erot = 24.0842875660089 | edyn = 48.6601188174915 | ebond = 7.90192238692662 | eexcv = 0 | estk = -144.525923632365 | ehbond = -37.1801014458734 | exstk = -23.2664637561606 | ecoaxstk = 0 | edh = 5.57501650276639 | epot = -191.495549944706 | etot = -142.835431127214
22200  ekin = 22.842054507316 |  erot = 23.8857796510304 | edyn = 46.7278341583464 | ebond = 6.43849004883987 | eexcv = 0.528630908110471 | estk = -140.870273748443 | ehbond = -33.7661764961949 | exstk = -24.5917065059517 | ecoaxstk = 0 | edh = 5.52990306700026 | epot = -186.731132726639 | etot = -140.003298568293
22300  ekin = 21.2830035890272 |  erot = 22.5681575965513 | edyn = 43.8511611855785 | ebond = 6.32804801242294 | eexcv = 0 | estk = -141.078953446835 | ehbond = -33.4531514315001 | exstk = -23.8121340732207 | ecoaxstk = 0 | edh = 5.40758339965506 | epot = -186.608607539477 | etot = -142.757446353899
22400  ekin = 23.2165402545159 |  erot = 21.0748608428913 | edyn = 44.2914010974072 | ebond = 6.00970159827543 | eexcv = 0 | estk = -139.520385183166 | ehbond = -34.2944974277226 | exstk = -23.3700135116517 | ecoaxstk = 0 | edh = 5.43873610171813 | epot = -185.736458422547 | etot = -141.44505732514
22500  ekin = 23.3259919867061 |  erot = 23.746016511793 | edyn = 47.0720084984991 | ebond = 7.90092501916317 | eexcv = 0 | estk = -144.414006026273 | ehbond = -37.3160485552456 | exstk = -23.8247557367906 | ecoaxstk = 0 | edh = 5.39602933905705 | epot = -192.257855960089 | etot = -145.18584746159
22600  ekin = 21.5460857396472 |  erot = 22.0977621950559 | edyn = 43.6438479347031 | ebond = 5.35186799112761 | eexcv = 0.00433913498681942 | estk = -139.207562347535 | ehbond = -36.541626326746 | exstk = -23.6062896251935 | ecoaxstk = 0 | edh = 5.4077551055034 | epot = -188.591516067856 | etot = -144.947668133153
22700  ekin = 21.9618859255906 |  erot = 24.0089836786435 | edyn = 45.9708696042341 | ebond = 5.99175794210109 | eexcv = 0.115408492562057 | estk = -140.015713648176 | ehbond = -37.1143844844181 | exstk = -23.5056014071424 | ecoaxstk = 0 | edh = 5.49878490381986 | epot = -189.029748201254 | etot = -143.058878597019
22800  ekin = 19.2755103975014 |  erot = 23.385582880793 | edyn = 42.6610932782944 | ebond = 7.45662509123069 | eexcv = 0.0272065427045172 | estk = -139.082343730421 | ehbond = -35.794116452881 | exstk = -23.7498287474554 | ecoaxstk = 0 | edh = 5.52797172032163 | epot = -185.614485576501 | etot = -142.953392298206
22900  ekin = 21.29928691936 |  erot = 20.1313651501025 | edyn = 41.4306520694625 | ebond = 7.12117255824876 | eexcv = 0 | estk = -140.132343845911 | ehbond = -36.8633324991802 | exstk = -22.2573118829469 | ecoaxstk = 0 | edh = 5.32226313238193 | epot = -186.809552537407 | etot = -145.378900467945
23000  ekin = 20.6842341777256 |  erot = 22.3582966931426 | edyn = 43.0425308708682 | ebond = 7.01657955401568 | eexcv = 0 | estk = -141.058378510506 | ehbond = -33.3102898963956 | exstk = -24.7368338798091 | ecoaxstk = 0 | edh = 5.26861572778562 | epot = -186.820307004909 | etot = -143.777776134041
23100  ekin = 20.2907178605744 |  erot = 26.1425604615759 | edyn = 46.4332783221503 | ebond = 5.02502287592487 | eexcv = 0 | estk = -142.288104303177 | ehbond = -35.1660910146942 | exstk = -24.3841790518221 | ecoaxstk = 0 | edh = 5.31359626350141 | epot = -191.499755230267 | etot = -145.066476908117
23200  ekin = 21.8299335313829 |  erot = 22.2024854944945 | edyn = 44.0324190258775 | ebond = 7.46856355784769 | eexcv = 0 | estk = -142.291805519267 | ehbond = -33.1720778919107 | exstk = -23.8889407664552 | ecoaxstk = 0 | edh = 5.42320840459619 | epot = -186.461052215189 | etot = -142.428633189311
23300  ekin = 22.7463538589469 |  erot = 22.147696043332 | edyn = 44.8940499022789 | ebond = 6.10053874647209 | eexcv = 0.0304771954199384 | estk = -141.142944620252 | ehbond = -34.9315509522589 | exstk = -23.9088935069814 | ecoaxstk = 0 | edh = 5.49851968292343 | epot = -188.353853454677 | etot = -143.459803552398
23400  ekin = 22.678588090342 |  erot = 21.0389307288053 | edyn = 43.7175188191473 | ebond = 6.63193912824716 | eexcv = 0.00779345953285091 | estk = -145.027629142026 | ehbond = -35.1015866010609 | exstk = -25.6317577737078 | ecoaxstk = 0 | edh = 5.44134047131095 | epot = -193.679900457704 | etot = -149.962381638557
23500  ekin = 21.2043140578209 |  erot = 19.3314041946555 | edyn = 40.5357182524764 | ebond = 7.65713495707451 | eexcv = 0 | estk = -141.66114522905 | ehbond = -36.118459959602 | exstk = -25.1705171452035 | ecoaxstk = 0 | edh = 5.46664172617218 | epot = -189.826345650609 | etot = -149.290627398133
23600  ekin = 19.5739752828354 |  erot = 22.5119055929153 | edyn = 42.0858808757508 | ebond = 7.40039014796557 | eexcv = 0 | estk = -143.670944816838 | ehbond = -36.5454278962077 | exstk = -25.1613309741952 | ecoaxstk = 0 | edh = 5.49735752530559 | epot = -192.47995601397 | etot = -150.394075138219
[...]
494000  ekin = 20.2563430528791 |  erot = 22.7372468252679 | edyn = 42.993589878147 | ebond = 6.56503618796587 | eexcv = 0 | estk = -138.456956816923 | ehbond = -57.3141959416879 | exstk = -24.1253213293585 | ecoaxstk = 0 | edh = 4.94648328505165 | epot = -208.384954614952 | etot = -165.391364736805
494100  ekin = 22.047906264145 |  erot = 20.1920655882441 | edyn = 42.2399718523891 | ebond = 7.23606968634417 | eexcv = 0 | estk = -139.909201251593 | ehbond = -57.4881953807963 | exstk = -25.1131769549666 | ecoaxstk = 0 | edh = 4.88819281849165 | epot = -210.38631108252 | etot = -168.14633923013
494200  ekin = 19.7906870267232 |  erot = 22.1226474756133 | edyn = 41.9133345023366 | ebond = 6.07490033235507 | eexcv = 0 | estk = -140.312883966538 | ehbond = -55.4166779628187 | exstk = -24.272112607142 | ecoaxstk = 0 | edh = 4.86014436520865 | epot = -209.066629838935 | etot = -167.153295336599
494300  ekin = 23.5582054035076 |  erot = 21.7399520029034 | edyn = 45.298157406411 | ebond = 5.32355673407742 | eexcv = 0 | estk = -141.472188873768 | ehbond = -53.4601268301904 | exstk = -24.1450073828766 | ecoaxstk = 0 | edh = 4.79751325064796 | epot = -208.956253102109 | etot = -163.658095695698
494400  ekin = 22.3635754554271 |  erot = 21.2603383169724 | edyn = 43.6239137723995 | ebond = 7.02289231421438 | eexcv = 0 | estk = -138.592908005242 | ehbond = -54.4029337215336 | exstk = -24.668322456419 | ecoaxstk = 0 | edh = 4.89026531815385 | epot = -205.751006550826 | etot = -162.127092778427
494500  ekin = 21.6004725739641 |  erot = 22.1453019763789 | edyn = 43.7457745503429 | ebond = 6.18060884530763 | eexcv = 0 | estk = -137.849217371677 | ehbond = -55.9231845992406 | exstk = -24.2335388326508 | ecoaxstk = 0 | edh = 4.89154913188115 | epot = -206.93378282638 | etot = -163.188008276037
494600  ekin = 21.9261308333737 |  erot = 20.6798236333617 | edyn = 42.6059544667354 | ebond = 7.31024225167748 | eexcv = 0 | estk = -138.770563553225 | ehbond = -55.4930048399727 | exstk = -24.3135793137288 | ecoaxstk = 0 | edh = 4.87058483426168 | epot = -206.396320620987 | etot = -163.790366154252
494700  ekin = 21.3363020410649 |  erot = 24.1089620620029 | edyn = 45.4452641030677 | ebond = 6.35484797433459 | eexcv = 0 | estk = -141.390719620254 | ehbond = -56.4594792434723 | exstk = -23.3364894823218 | ecoaxstk = 0 | edh = 4.75544638787016 | epot = -210.076393983843 | etot = -164.631129880775
494800  ekin = 19.4351075610156 |  erot = 21.2908084220059 | edyn = 40.7259159830216 | ebond = 6.21980155253086 | eexcv = 0 | estk = -137.414656446772 | ehbond = -54.9250637106449 | exstk = -23.8321765079848 | ecoaxstk = 0 | edh = 4.76842013719014 | epot = -205.183674975681 | etot = -164.457758992659
494900  ekin = 23.1133183242996 |  erot = 21.3143197525659 | edyn = 44.4276380768656 | ebond = 7.51575780379238 | eexcv = 0 | estk = -137.545723343797 | ehbond = -56.3112978978059 | exstk = -26.0771578050316 | ecoaxstk = 0 | edh = 4.77510539039052 | epot = -207.643315852451 | etot = -163.215677775586
495000  ekin = 18.9712971788097 |  erot = 21.5747028057684 | edyn = 40.5459999845782 | ebond = 7.95945597976819 | eexcv = 0 | estk = -136.892623565306 | ehbond = -55.1640304259653 | exstk = -24.4460976293291 | ecoaxstk = 0 | edh = 4.75775413355867 | epot = -203.785541507274 | etot = -163.239541522695
495100  ekin = 20.3399866596817 |  erot = 23.6970092060091 | edyn = 44.0369958656908 | ebond = 6.82313229462828 | eexcv = 0 | estk = -137.968305645134 | ehbond = -57.0947263524149 | exstk = -24.9756309366716 | ecoaxstk = 0 | edh = 4.78412118093826 | epot = -208.431409458654 | etot = -164.394413592963
495200  ekin = 22.1810199045766 |  erot = 21.5408091012855 | edyn = 43.7218290058622 | ebond = 6.1803142473033 | eexcv = 0 | estk = -138.719000523764 | ehbond = -57.2394618929754 | exstk = -24.6182372133973 | ecoaxstk = 0 | edh = 4.77788216851981 | epot = -209.618503214313 | etot = -165.896674208451
495300  ekin = 23.4804406836415 |  erot = 23.1782451544824 | edyn = 46.6586858381239 | ebond = 6.70615057869425 | eexcv = 0 | estk = -138.93182718654 | ehbond = -56.1068612064317 | exstk = -24.2541692335765 | ecoaxstk = 0 | edh = 4.78732737156012 | epot = -207.799379676294 | etot = -161.14069383817
495400  ekin = 20.6566376714728 |  erot = 19.7012879448085 | edyn = 40.3579256162814 | ebond = 5.7306904608651 | eexcv = 0 | estk = -136.714575630604 | ehbond = -57.7606093332576 | exstk = -24.0157373912634 | ecoaxstk = 0 | edh = 4.77029945599284 | epot = -207.989932438267 | etot = -167.632006821986
495500  ekin = 22.364422059227 |  erot = 22.2838595454884 | edyn = 44.6482816047154 | ebond = 6.83058866181922 | eexcv = 0 | estk = -135.021316293044 | ehbond = -58.8531280112857 | exstk = -25.4081479968806 | ecoaxstk = 0 | edh = 4.79644549994336 | epot = -207.655558139447 | etot = -163.007276534732
495600  ekin = 21.1944604743895 |  erot = 20.8970700774329 | edyn = 42.0915305518224 | ebond = 7.05604656957037 | eexcv = 0.0371614844902197 | estk = -134.11135628186 | ehbond = -55.0699248839732 | exstk = -25.1584594402918 | ecoaxstk = 0 | edh = 4.845838848132 | epot = -202.400693703932 | etot = -160.30916315211
495700  ekin = 23.2466548988765 |  erot = 22.7250081703246 | edyn = 45.971663069201 | ebond = 6.30791704559322 | eexcv = 0 | estk = -137.994844105024 | ehbond = -57.0949501415465 | exstk = -24.9040480655736 | ecoaxstk = 0 | edh = 4.89383792189446 | epot = -208.792087344657 | etot = -162.820424275456
495800  ekin = 21.2090501450182 |  erot = 23.0665935937982 | edyn = 44.2756437388163 | ebond = 5.5827574406734 | eexcv = 0 | estk = -135.474005670612 | ehbond = -57.3883970850109 | exstk = -24.1424908995144 | ecoaxstk = 0 | edh = 4.89879602563341 | epot = -206.523340188831 | etot = -162.247696450014
495900  ekin = 20.6010434755892 |  erot = 22.0403561603545 | edyn = 42.6413996359437 | ebond = 6.69063940457775 | eexcv = 0 | estk = -139.523202115403 | ehbond = -56.7827828785275 | exstk = -25.3528803498343 | ecoaxstk = 0 | edh = 4.91472413405334 | epot = -210.053501805134 | etot = -167.41210216919
496000  ekin = 21.8961043793983 |  erot = 17.4699235200249 | edyn = 39.3660278994232 | ebond = 7.05269795710952 | eexcv = 0 | estk = -140.674796827847 | ehbond = -54.7199366077465 | exstk = -27.0081459657607 | ecoaxstk = 0 | edh = 4.88291624400981 | epot = -210.467265200235 | etot = -171.101237300812
496100  ekin = 22.8651416864238 |  erot = 22.8856906299032 | edyn = 45.750832316327 | ebond = 6.7244601881388 | eexcv = 0 | estk = -139.701264488573 | ehbond = -57.0422818874484 | exstk = -24.4707011293606 | ecoaxstk = 0 | edh = 4.87971926924567 | epot = -209.610068047998 | etot = -163.859235731671
496200  ekin = 22.5127147722714 |  erot = 21.7523708622488 | edyn = 44.2650856345202 | ebond = 6.28991654712456 | eexcv = 0 | estk = -139.231285266316 | ehbond = -54.1001818568018 | exstk = -24.4997211640449 | ecoaxstk = 0 | edh = 4.92661833322163 | epot = -206.614653406817 | etot = -162.349567772296
496300  ekin = 22.2075923041973 |  erot = 19.3507610609967 | edyn = 41.558353365194 | ebond = 7.94175281224321 | eexcv = 0.00124170677856038 | estk = -136.944103292398 | ehbond = -52.0472487666136 | exstk = -24.8851540806178 | ecoaxstk = 0 | edh = 4.88759887457519 | epot = -201.045912746032 | etot = -159.487559380838
496400  ekin = 23.1113625457868 |  erot = 20.5655834642971 | edyn = 43.6769460100839 | ebond = 6.41990130500991 | eexcv = 0 | estk = -138.385043447775 | ehbond = -53.4541708103396 | exstk = -24.7972191537829 | ecoaxstk = 0 | edh = 4.85957310466328 | epot = -205.356959002225 | etot = -161.680012992141
496500  ekin = 24.3174286672449 |  erot = 24.2706121277487 | edyn = 48.5880407949936 | ebond = 6.82571265136978 | eexcv = 0 | estk = -137.692932735076 | ehbond = -55.2578802853146 | exstk = -25.4221917966209 | ecoaxstk = 0 | edh = 4.80247312022114 | epot = -206.74481904542 | etot = -158.156778250427
496600  ekin = 23.2544413365845 |  erot = 21.6588234477361 | edyn = 44.9132647843206 | ebond = 5.88728158480393 | eexcv = 0 | estk = -138.55819467609 | ehbond = -57.5036608594684 | exstk = -25.8637478391988 | ecoaxstk = 0 | edh = 4.74279441357577 | epot = -211.295527376377 | etot = -166.382262592057
496700  ekin = 21.255381380718 |  erot = 19.715785378461 | edyn = 40.971166759179 | ebond = 7.04572243577973 | eexcv = 0 | estk = -138.242738422073 | ehbond = -55.3312481378615 | exstk = -25.3169217503674 | ecoaxstk = 0 | edh = 4.76046767739661 | epot = -207.084718197126 | etot = -166.113551437947
496800  ekin = 22.8547152678352 |  erot = 22.049552482737 | edyn = 44.9042677505722 | ebond = 7.05937534738855 | eexcv = 0 | estk = -135.155956686128 | ehbond = -56.1926339411541 | exstk = -24.1312298560469 | ecoaxstk = 0 | edh = 4.75890364593161 | epot = -203.661541490009 | etot = -158.757273739437
496900  ekin = 20.3651241655415 |  erot = 25.1593238629896 | edyn = 45.5244480285311 | ebond = 7.07272138674246 | eexcv = 0 | estk = -136.409042285757 | ehbond = -57.8381555497418 | exstk = -23.7493599036736 | ecoaxstk = 0 | edh = 4.80777696872317 | epot = -206.116059383706 | etot = -160.591611355175
497000  ekin = 20.4967724998339 |  erot = 21.6369179095469 | edyn = 42.1336904093808 | ebond = 5.86679122353888 | eexcv = 0 | estk = -134.509029193188 | ehbond = -56.541866145738 | exstk = -24.7422621130574 | ecoaxstk = 0 | edh = 4.79537449516339 | epot = -205.130991733281 | etot = -162.9973013239
497100  ekin = 24.00201595704 |  erot = 20.8686567200429 | edyn = 44.8706726770829 | ebond = 7.17744927220678 | eexcv = 0 | estk = -135.11715796882 | ehbond = -56.26812610086 | exstk = -25.0617646768023 | ecoaxstk = 0 | edh = 4.77572263311001 | epot = -204.493876841166 | etot = -159.623204164083
497200  ekin = 22.6594889535084 |  erot = 20.6568405045227 | edyn = 43.316329458031 | ebond = 7.73951434603903 | eexcv = 0 | estk = -138.038988692659 | ehbond = -56.1426193894062 | exstk = -25.0730149359974 | ecoaxstk = 0 | edh = 4.81807750938454 | epot = -206.697031162639 | etot = -163.380701704608
497300  ekin = 22.8555751488874 |  erot = 22.6326388248993 | edyn = 45.4882139737867 | ebond = 7.736472348365 | eexcv = 0 | estk = -138.902131887675 | ehbond = -57.0313716731869 | exstk = -22.9136324555847 | ecoaxstk = 0 | edh = 4.86288871470151 | epot = -206.24777495338 | etot = -160.759560979593
497400  ekin = 21.3603609886539 |  erot = 22.6917575046469 | edyn = 44.0521184933007 | ebond = 6.79047002565688 | eexcv = 0 | estk = -135.686022411351 | ehbond = -52.5208397926791 | exstk = -26.0670373646916 | ecoaxstk = 0 | edh = 4.87851517956046 | epot = -202.604914363504 | etot = -158.552795870203
497500  ekin = 21.9541946731368 |  erot = 20.9101783202942 | edyn = 42.864372993431 | ebond = 6.50804744338839 | eexcv = 0 | estk = -138.581635062208 | ehbond = -57.2280628301342 | exstk = -23.4900098677995 | ecoaxstk = 0 | edh = 4.87894475999291 | epot = -207.912715556761 | etot = -165.04834256333
497600  ekin = 21.1955017294376 |  erot = 20.1223099404886 | edyn = 41.3178116699262 | ebond = 6.1531281692528 | eexcv = 0 | estk = -140.862793228807 | ehbond = -56.8705085925044 | exstk = -22.7588435321347 | ecoaxstk = 0 | edh = 4.93602583036597 | epot = -209.402991353828 | etot = -168.085179683901
497700  ekin = 20.986299231855 |  erot = 21.7702356488863 | edyn = 42.7565348807413 | ebond = 6.93794437801357 | eexcv = 0 | estk = -142.43053412165 | ehbond = -54.9215736929778 | exstk = -22.481268059731 | ecoaxstk = 0 | edh = 4.97070745817479 | epot = -207.92472403817 | etot = -165.168189157429
497800  ekin = 22.8598409578847 |  erot = 21.0319121868044 | edyn = 43.8917531446891 | ebond = 5.90026096197342 | eexcv = 0 | estk = -138.322551604216 | ehbond = -56.7361239632555 | exstk = -23.1129345107829 | ecoaxstk = 0 | edh = 5.04098966462178 | epot = -207.23035945166 | etot = -163.338606306971
497900  ekin = 23.3471979534601 |  erot = 22.627828628363 | edyn = 45.9750265818232 | ebond = 7.1393487301512 | eexcv = 0 | estk = -143.203910355916 | ehbond = -55.8872414709829 | exstk = -22.7424828801683 | ecoaxstk = 0 | edh = 5.08945073085162 | epot = -209.604835246064 | etot = -163.629808664241
498000  ekin = 22.6458851960063 |  erot = 19.490429641108 | edyn = 42.1363148371142 | ebond = 8.80126327276896 | eexcv = 0 | estk = -140.778187054813 | ehbond = -53.6975673100882 | exstk = -23.5715685722562 | ecoaxstk = 0 | edh = 5.00849731412598 | epot = -204.237562350262 | etot = -162.101247513148
498100  ekin = 21.4229799533105 |  erot = 21.2280980364105 | edyn = 42.651077989721 | ebond = 7.26786949913296 | eexcv = 0 | estk = -139.225711323147 | ehbond = -58.2095700394571 | exstk = -22.8771947964171 | ecoaxstk = 0 | edh = 5.10255191699945 | epot = -207.942054742889 | etot = -165.290976753168
498200  ekin = 24.7304778863129 |  erot = 22.3078202026525 | edyn = 47.0382980889654 | ebond = 6.2735777893941 | eexcv = 0 | estk = -140.575468520072 | ehbond = -56.8189663374726 | exstk = -23.4185901830396 | ecoaxstk = 0 | edh = 5.03255538721491 | epot = -209.506891863975 | etot = -162.468593775009
498300  ekin = 22.0311870201698 |  erot = 23.4154274446385 | edyn = 45.4466144648083 | ebond = 6.47971543532859 | eexcv = 0.214490710463752 | estk = -139.562349175391 | ehbond = -55.5106442037061 | exstk = -23.5811756672327 | ecoaxstk = 0 | edh = 5.06804495560635 | epot = -206.891917944931 | etot = -161.445303480122
498400  ekin = 22.2110129632947 |  erot = 21.7892226711232 | edyn = 44.0002356344179 | ebond = 6.38240195880464 | eexcv = 0 | estk = -138.2925654577 | ehbond = -56.8263604036218 | exstk = -23.7086706202937 | ecoaxstk = 0 | edh = 5.01217683455683 | epot = -207.433017688254 | etot = -163.432782053836
498500  ekin = 23.4452091951603 |  erot = 24.5414778026627 | edyn = 47.986686997823 | ebond = 6.32561425740933 | eexcv = 0 | estk = -140.556892491649 | ehbond = -55.4223624571702 | exstk = -23.8817822717787 | ecoaxstk = 0 | edh = 5.06273823320748 | epot = -208.472684729981 | etot = -160.485997732158
498600  ekin = 22.2903218750412 |  erot = 25.3172207454107 | edyn = 47.6075426204519 | ebond = 7.20482859121064 | eexcv = 0 | estk = -137.792534835511 | ehbond = -57.1656210010461 | exstk = -23.9579124200096 | ecoaxstk = 0 | edh = 4.97245970393823 | epot = -206.738779961418 | etot = -159.131237340966
498700  ekin = 22.4996913323791 |  erot = 23.1043768989294 | edyn = 45.6040682313085 | ebond = 7.29380555228178 | eexcv = 0 | estk = -140.538799818936 | ehbond = -56.0418920927594 | exstk = -22.9929422981266 | ecoaxstk = 0 | edh = 4.83396329914811 | epot = -207.445865358392 | etot = -161.841797127084
498800  ekin = 22.5313628065972 |  erot = 23.7015961553738 | edyn = 46.232958961971 | ebond = 7.35985531831324 | eexcv = 0 | estk = -136.205248907802 | ehbond = -59.2010970525707 | exstk = -24.9388784301189 | ecoaxstk = 0 | edh = 4.8186050817258 | epot = -208.166763990453 | etot = -161.933805028482
498900  ekin = 22.3977325956459 |  erot = 21.1990389087784 | edyn = 43.5967715044243 | ebond = 6.85264976243066 | eexcv = 0 | estk = -139.174318408688 | ehbond = -57.5920937027771 | exstk = -24.0896997430589 | ecoaxstk = 0 | edh = 4.83485241110713 | epot = -209.168609680986 | etot = -165.571838176562
499000  ekin = 24.6927636465411 |  erot = 24.2534550528067 | edyn = 48.9462186993478 | ebond = 7.69294800812415 | eexcv = 0 | estk = -139.266053435961 | ehbond = -58.0535840121843 | exstk = -25.1328397608296 | ecoaxstk = 0 | edh = 4.8523812560387 | epot = -209.907147944812 | etot = -160.960929245464
499100  ekin = 23.0193608573928 |  erot = 26.8048811340606 | edyn = 49.8242419914534 | ebond = 5.85402426081595 | eexcv = 0 | estk = -137.413513104983 | ehbond = -55.6951506677696 | exstk = -25.5210802501996 | ecoaxstk = 0 | edh = 4.79186409540811 | epot = -207.983855666728 | etot = -158.159613675275
499200  ekin = 20.0482701324462 |  erot = 26.1273315210653 | edyn = 46.1756016535116 | ebond = 6.49084510412993 | eexcv = 0 | estk = -137.469393617549 | ehbond = -57.0806996104267 | exstk = -23.7251099553375 | ecoaxstk = 0 | edh = 4.90585258833601 | epot = -206.878505490848 | etot = -160.702903837336
499300  ekin = 20.6924979478904 |  erot = 23.737915716709 | edyn = 44.4304136645994 | ebond = 7.12189015958199 | eexcv = 0 | estk = -137.792732924799 | ehbond = -57.5573892246198 | exstk = -23.912756368013 | ecoaxstk = 0 | edh = 4.92927029312564 | epot = -207.211718064724 | etot = -162.781304400124
499400  ekin = 21.9263520624753 |  erot = 22.0171394740931 | edyn = 43.9434915365684 | ebond = 6.09157425142018 | eexcv = 0 | estk = -134.539481857675 | ehbond = -55.3548588367694 | exstk = -24.6325994323886 | ecoaxstk = 0 | edh = 4.94905588139917 | epot = -203.486309994014 | etot = -159.542818457445
499500  ekin = 23.6940688201556 |  erot = 21.0528068558772 | edyn = 44.7468756760328 | ebond = 7.55936764095008 | eexcv = 0 | estk = -136.515588998077 | ehbond = -56.4936432967909 | exstk = -24.7883072525822 | ecoaxstk = 0 | edh = 4.9876454558705 | epot = -205.25052645063 | etot = -160.503650774597
499600  ekin = 21.5747507500022 |  erot = 21.9615338264417 | edyn = 43.5362845764438 | ebond = 6.89787820000642 | eexcv = 0 | estk = -136.040711341675 | ehbond = -57.2418915244881 | exstk = -23.77680092054 | ecoaxstk = 0 | edh = 4.96054611905191 | epot = -205.200979467645 | etot = -161.664694891201
499700  ekin = 22.2577099387339 |  erot = 22.9422286577791 | edyn = 45.1999385965129 | ebond = 7.78896823267411 | eexcv = 0 | estk = -135.799252580366 | ehbond = -54.4461187459276 | exstk = -24.7734605814148 | ecoaxstk = 0 | edh = 4.98448032678692 | epot = -202.245383348247 | etot = -157.045444751735
499800  ekin = 21.9973444144382 |  erot = 23.2416286713861 | edyn = 45.2389730858243 | ebond = 7.25428608109764 | eexcv = 0 | estk = -138.030911313662 | ehbond = -57.1459068435809 | exstk = -22.7195680241121 | ecoaxstk = 0 | edh = 4.96576974374874 | epot = -205.676330356508 | etot = -160.437357270684
499900  ekin = 20.7683766225792 |  erot = 21.8758769695149 | edyn = 42.6442535920941 | ebond = 8.41673728859521 | eexcv = 0 | estk = -137.043245522098 | ehbond = -56.8806826946024 | exstk = -23.9670753916609 | ecoaxstk = 0 | edh = 4.96575940541047 | epot = -204.508506914356 | etot = -161.864253322262
500000  ekin = 20.4561556907838 |  erot = 19.2533587778828 | edyn = 39.7095144686666 | ebond = 7.11079122861262 | eexcv = 0 | estk = -132.110715714652 | ehbond = -58.2016470154924 | exstk = -23.0104158599116 | ecoaxstk = 0 | edh = 4.92048442067362 | epot = -201.29150294077 | etot = -161.581988472103
    500000   0.092771681   -1.4081236      0.048045887   -1.2218605     -2.7483844e-05  1000000      
Loop time of 76.3004 on 4 procs for 500000 steps with 148 atoms

Performance: 2830916.819 tau/day, 6553.048 timesteps/s, 969.851 katom-step/s
97.6% CPU use with 4 MPI tasks x 1 OpenMP threads

MPI task timing breakdown:
Section |  min time  |  avg time  |  max time  |%varavg| %total
---------------------------------------------------------------
Pair    | 26.393     | 38.878     | 60.266     | 221.3 | 50.95
Bond    | 0.57347    | 0.84465    | 1.0593     |  22.4 |  1.11
Neigh   | 0.0237     | 0.023748   | 0.023801   |   0.0 |  0.03
Comm    | 4.9146     | 26.581     | 39.261     | 271.5 | 34.84
Output  | 0.093527   | 0.10593    | 0.11684    |   2.7 |  0.14
Modify  | 6.8586     | 8.0502     | 9.2139     |  40.6 | 10.55
Other   |            | 1.817      |            |       |  2.38

Nlocal:             37 ave          55 max          19 min
Histogram: 2 0 0 0 0 0 0 0 0 2
Nghost:            111 ave         129 max          93 min
Histogram: 2 0 0 0 0 0 0 0 0 2
Neighs:        1123.25 ave        2111 max         504 min
Histogram: 2 0 0 0 1 0 0 0 0 1

Total # of neighbors = 4493
Ave neighs/atom = 30.358108
Ave special neighs/atom = 6
Neighbor list builds = 507
Dangerous builds = 0

#write_data last_config.${number}.* nocoeff
#write_restart last_config.${number}.*
Total wall time: 0:01:16
