ITEM: TIMESTEP
0
ITEM: NUMBER OF ATOMS
148
ITEM: BOX BOUNDS pp pp pp
0.0000000000000000e+00 1.0000000000000000e+02
0.0000000000000000e+00 1.0000000000000000e+02
0.0000000000000000e+00 1.0000000000000000e+02
ITEM: ATOMS id mol type x y z ix iy iz vx vy vz c_quat[1] c_quat[2] c_quat[3] c_quat[4] angmomx angmomy angmomz
1 1 2  2.424152183532715e+01  2.456073570251465e+01  2.503786659240723e+01 0 0 0 -2.170853763818741e-01 -1.521113514900208e-01  1.061807107180357e-02  9.871267741776407e-01  1.385219270545867e-01 -5.186677432817664e-02  6.084607750314720e-02 -2.095695734024048e-01 -2.698560059070587e-01  1.439048163592815e-02
2 1 2  2.441000366210938e+01  2.421792411804199e+01  2.538788604736328e+01 0 0 0  4.453676566481590e-02  7.709240913391113e-02  1.886554956436157e-01  9.130719583236295e-01  9.661062824090864e-02 -2.529073444522123e-02  3.953812896245477e-01 -1.096581518650055e-01 -2.642110288143158e-01 -2.311529666185379e-01
3 1 2  2.471900749206543e+01  2.396735572814941e+01  2.574562072753906e+01 0 0 0  2.282030433416367e-01 -4.666329547762871e-02 -1.824901551008224e-01  7.461314132018240e-01  1.857427592701194e-01  5.610529736420266e-03  6.393403346952611e-01 -1.043726652860641e-01  3.289804756641388e-01 -8.747017383575439e-02
4 1 2  2.521821403503418e+01  2.398185157775879e+01  2.622321510314941e+01 0 0 0 -1.507698595523834e-01 -8.070977777242661e-02 -9.082226455211639e-02  5.255892709029645e-01  1.513910273432804e-01  8.123957190200436e-02  8.332087416180985e-01 -1.808464080095291e-01 -1.860427409410477e-01 -7.112404331564903e-03
5 1 2  2.557441139221191e+01  2.412360954284668e+01  2.655269622802734e+01 0 0 0 -2.004324793815613e-01  1.144626066088676e-01 -7.262421399354935e-02  3.022332140390688e-01  1.538657912488208e-01  1.321020804670815e-01  9.314126061801276e-01 -2.216060310602188e-01 -2.031466513872147e-01 -1.122454479336739e-01
6 1 2  2.577593803405762e+01  2.445199584960938e+01  2.677331542968750e+01 0 0 0  1.655170768499374e-01 -2.693518400192261e-01 -3.054177761077881e-01 -1.217321952483092e-01  2.205227203492960e-01  1.411117224163707e-01  9.574123898542670e-01  5.321267247200012e-02 -1.558114886283875e-01  9.181504696607590e-02
7 1 2  2.580854034423828e+01  2.485257911682129e+01  2.702636718750000e+01 0 0 0 -1.012036576867104e-01  2.664577960968018e-02  6.205868348479271e-02 -4.609514481137231e-01  3.048624151585541e-01  4.879452500884186e-02  8.319866372933622e-01 -2.915301322937012e-01 -4.454129934310913e-01  2.590509131550789e-02
8 1 2  2.581606864929199e+01  2.508253288269043e+01  2.747699356079102e+01 0 0 0  2.329980581998825e-01 -2.416254132986069e-01  2.683278322219849e-01 -6.218567482915288e-01  2.254072831243404e-01 -5.601217498971114e-02  7.478959670781170e-01  1.345012038946152e-01  1.594113409519196e-01  2.962236702442169e-01
9 1 2  2.574723434448242e+01  2.517327308654785e+01  2.808602142333984e+01 0 0 0 -1.259736251085997e-02 -1.793040633201599e-01  5.424470454454422e-02  7.542054588050656e-01 -1.507928032891842e-01  1.740341213826994e-01 -6.149372171038128e-01  2.544459141790867e-02  3.098752908408642e-02 -1.735267341136932e-01
10 1 2  2.573134231567383e+01  2.497561836242676e+01  2.865589714050293e+01 0 0 0  1.415609121322632e-01 -2.414814829826355e-01 -2.130757719278336e-01  9.173994839947106e-01 -6.517385295894676e-02  2.279483478626481e-01 -3.196405893553161e-01  5.649907141923904e-02 -1.174203976988792e-01 -1.044625043869019e-01
11 1 2  2.587557792663574e+01  2.463747978210449e+01  2.905629348754883e+01 0 0 0 -3.263712227344513e-01 -1.060348190367222e-02 -2.503272891044617e-01  9.468137488999592e-01 -3.655929660640223e-02  3.193046550807448e-01  1.586442464816048e-02 -5.407509207725525e-02  1.572813242673874e-01 -1.323496997356415e-01
12 1 2  2.628934097290039e+01  2.430874443054199e+01  2.925580787658691e+01 0 0 0 -6.213967129588127e-02  1.506887823343277e-01 -2.749934494495392e-01  9.147694265015732e-01  8.241710830772285e-02  3.303068711727811e-01  2.174895111315114e-01 -1.158329248428345e-01 -4.855341091752052e-02  6.800470501184464e-02
13 1 2  2.674518775939941e+01  2.413059806823730e+01  2.952701950073242e+01 0 0 0 -1.746622920036316e-01  2.185907214879990e-01 -3.356278687715530e-02  7.917406838620205e-01  2.321982067148034e-01  4.084898386847109e-01  3.903418168829322e-01  1.350089162588120e-01  3.078982466831803e-03  4.558135569095612e-02
14 1 2  2.725339126586914e+01  2.406170272827148e+01  2.949331665039062e+01 0 0 0  5.817582458257675e-02 -1.925009638071060e-01  1.042696684598923e-01  6.276623865452085e-01  4.327594393021400e-01  3.578898673103568e-01  5.391419470676030e-01 -1.150182411074638e-01  6.253474205732346e-02 -5.577586591243744e-03
15 1 2  2.771536445617676e+01  2.412088394165039e+01  2.938641548156738e+01 0 0 0  1.870197951793671e-01 -8.045142889022827e-02 -1.233286783099174e-01  4.181045204720596e-01  5.519673895271872e-01  2.800945363932389e-01  6.648816898832667e-01 -8.654147386550903e-02  2.584995925426483e-01 -4.803772643208504e-02
16 1 2  2.824136543273926e+01  2.435172080993652e+01  2.931893920898438e+01 0 0 0  2.198746427893639e-02  1.052900031208992e-01  4.020361304283142e-01  1.705086930673358e-01  5.910369267030431e-01  2.038581603538021e-01  7.616061891286430e-01 -1.192745715379715e-01  1.523509323596954e-01 -2.333554625511169e-01
17 1 2  2.860577392578125e+01  2.457493209838867e+01  2.933464241027832e+01 0 0 0  1.470319647341967e-02 -1.529247760772705e-01  3.621288239955902e-01 -1.027568797970817e-01  6.180367815760539e-01  1.715212663694292e-01  7.602973204322823e-01 -9.532665461301804e-02 -1.631226241588593e-01  3.198940157890320e-01
18 1 2  2.882258987426758e+01  2.503394126892090e+01  2.950643157958984e+01 0 0 0 -2.220878899097443e-01  9.563602507114410e-02 -1.282456815242767e-01 -3.399734409546716e-01  6.571476701961891e-01 -6.552684677155395e-02  6.695380731170846e-01  2.719099819660187e-01 -1.495867967605591e-01 -2.041206955909729e-01
19 1 2  2.921663284301758e+01  2.535133743286133e+01  2.976997566223145e+01 0 0 0  1.721063256263733e-01 -2.383469045162201e-01 -4.885876178741455e-01 -4.762989043587862e-01  5.506209884829670e-01 -2.190008602822421e-01  6.496110405036988e-01 -8.254927396774292e-02 -2.226657234132290e-03  3.754113912582397e-01
20 1 2  2.943983459472656e+01  2.545565795898438e+01  3.024327278137207e+01 0 0 0  2.221149653196335e-01 -1.691089421510696e-01  1.499993354082108e-01  6.623120479623948e-01 -4.690595090662433e-01  4.017711208556927e-01 -4.241531498465548e-01 -1.883398294448853e-01  3.212172389030457e-01  2.772313654422760e-01
21 1 2  3.000536537170410e+01  2.539905166625977e+01  3.055269622802734e+01 0 0 0 -8.541597984731197e-03  1.197118014097214e-01  2.180936634540558e-01  6.398803032290805e-01 -3.212162447991481e-01  6.845344304284083e-01 -1.370617932709491e-01  8.530986309051514e-02 -3.090324699878693e-01  3.086489997804165e-02
22 1 2  3.055940628051758e+01  2.520376396179199e+01  3.059823036193848e+01 0 0 0 -5.461139231920242e-02  2.645527720451355e-01 -3.433558046817780e-01  6.342147985852657e-01 -6.969943044792190e-02  7.699506885590577e-01 -9.461280997787778e-03 -1.435768418014050e-02 -8.736739307641983e-02  1.017274111509323e-01
23 1 2  3.094727134704590e+01  2.493939399719238e+01  3.044269752502441e+01 0 0 0 -1.704719811677933e-01 -1.086767390370369e-01  1.646998226642609e-01  5.752737781445640e-01  2.272240377210619e-01  7.697349581661461e-01  1.579158352983564e-01  1.022870540618896e-01  1.339432448148727e-01  8.537961542606354e-02
24 1 2  3.125630187988281e+01  2.470816040039062e+01  3.011603164672852e+01 0 0 0  2.685844302177429e-01  6.036936491727829e-02 -2.825183793902397e-02  4.368862971229237e-01  4.694087306666746e-01  7.425294565028325e-01  1.934833666900855e-01  2.440591752529144e-01 -1.189284399151802e-01 -6.210242211818695e-02
25 1 2  3.145734786987305e+01  2.463740539550781e+01  2.963208580017090e+01 0 0 0  4.245323538780212e-01  1.429929435253143e-01 -1.108737103641033e-02  2.791734055229159e-01  7.069710906046623e-01  5.753938929011457e-01  3.019535638306939e-01  1.669015735387802e-01  1.977110356092453e-01  1.982817798852921e-01
26 1 2  3.171427154541016e+01  2.474391937255859e+01  2.905798530578613e+01 0 0 0  3.575681746006012e-01  1.510333716869354e-01 -4.007341340184212e-02  1.890952004061108e-01  7.818275559238230e-01  4.198167210825204e-01  4.204076577336285e-01  2.839860916137695e-01 -1.855834871530533e-01  1.086013019084930e-02
27 1 2  3.180985641479492e+01  2.505288124084473e+01  2.871070671081543e+01 0 0 0  1.413213014602661e-01  5.714693106710911e-03 -3.448169529438019e-01  3.539014980090324e-02  8.986724422923599e-01  8.619854637593576e-02  4.286084336128148e-01  1.360773891210556e-01 -7.818637043237686e-02  1.717053651809692e-01
28 1 2  3.207409667968750e+01  2.532593345642090e+01  2.836301994323730e+01 0 0 0  1.489217132329941e-01  3.795421496033669e-02 -1.208066195249557e-02 -8.011476725501752e-02  8.971239186092885e-01 -1.808067019308585e-01  3.950433333998624e-01 -3.096244931221008e-01 -1.409762948751450e-01  2.474685013294220e-01
29 1 2  3.249822616577148e+01  2.552132606506348e+01  2.824920272827148e+01 0 0 0  2.224062830209732e-01  6.969007104635239e-02  3.325119018554688e-01 -2.104251077552456e-01  8.295289425557935e-01 -3.874871700289129e-01  3.427195654634335e-01 -4.966071993112564e-02  1.431592367589474e-02  4.416818022727966e-01
30 1 2  3.296072769165039e+01  2.561645317077637e+01  2.823728370666504e+01 0 0 0 -1.357535924762487e-02  1.160113215446472e-01 -1.317192912101746e-01 -2.608539778737989e-01  6.538000269289794e-01 -6.844553613292318e-01  1.897935335114241e-01 -4.083218425512314e-02  3.959077298641205e-01 -1.865212619304657e-01
31 1 2  3.352794265747070e+01  2.560144233703613e+01  2.799221038818359e+01 0 0 0 -1.294663995504379e-01  2.417248636484146e-01  2.039755322039127e-02  2.294336030010495e-01 -3.984778214432184e-01  8.730792735346532e-01 -1.621981188424376e-01  2.702279761433601e-02 -2.692944705486298e-01  2.803251147270203e-01
32 1 2  3.394128417968750e+01  2.518715476989746e+01  2.781522560119629e+01 0 0 0 -8.050646632909775e-02  8.981589227914810e-02 -1.985791474580765e-01  3.291083080955446e-01 -1.292297172362740e-01  9.328775120205497e-01 -6.875281297423470e-02 -8.326611667871475e-02  1.063931360840797e-01  2.359083890914917e-01
33 1 2  3.423975372314453e+01  2.495306205749512e+01  2.749290847778320e+01 0 0 0 -3.650293052196503e-01 -2.225068658590317e-01  1.131228134036064e-01  3.301799653092786e-01  1.555435540867103e-01  9.306386898675841e-01 -2.643902819667834e-02 -3.662605285644531e-01  6.298989802598953e-02 -3.783064186573029e-01
34 1 2  3.437212753295898e+01  2.471877861022949e+01  2.707971572875977e+01 0 0 0  1.439970582723618e-01 -3.608284518122673e-02 -4.659379720687866e-01  1.349786297157481e-01  3.617294182386869e-01  9.192208028360431e-01 -7.723802906742532e-02 -6.343905627727509e-02 -1.743578910827637e-01  3.626690506935120e-01
35 1 2  3.417139053344727e+01  2.456165695190430e+01  2.664463806152344e+01 0 0 0  1.059620156884193e-01 -2.061003446578979e-01 -1.852241903543472e-01  1.937938694549936e-01  6.900372931060026e-01  6.967828375058187e-01  2.803832452094100e-02  4.209763109683990e-01  8.535180985927582e-02  8.820638805627823e-02
36 1 2  3.391548538208008e+01  2.467078781127930e+01  2.607194709777832e+01 0 0 0 -1.390739977359772e-01 -9.237870573997498e-02 -2.761190570890903e-02  1.213228403451426e-01  8.729584865006534e-01  4.561082515150539e-01  1.232457388997930e-01  2.827095091342926e-01 -1.295569688081741e-01  4.683145508170128e-02
37 1 2  3.397321701049805e+01  2.469049263000488e+01  2.562008285522461e+01 0 0 0 -7.157032936811447e-02  2.033976614475250e-01 -1.520919650793076e-01 -6.375472360427585e-02  8.979888379039060e-01  4.150408556273347e-01  1.315008379375013e-01  2.435307204723358e-01 -2.854136526584625e-01 -2.122983634471893e-01
38 1 2  3.393528366088867e+01  2.509749794006348e+01  2.523332023620605e+01 0 0 0 -3.336301073431969e-02 -9.001489728689194e-02 -1.331408917903900e-01 -1.083730068825332e-01  9.833890355736988e-01  1.837441494069953e-02  1.444426424857142e-01 -2.044675797224045e-01 -1.414255797863007e-02  5.365929752588272e-02
39 1 2  3.412838745117188e+01  2.550612068176270e+01  2.489333343505859e+01 0 0 0 -2.245987206697464e-01 -3.541741147637367e-02  1.188395544886589e-01 -1.187121841615085e-01  9.421414794889964e-01 -2.858857439847058e-01  1.286319996898134e-01 -1.009388864040375e-01  6.127129495143890e-02 -2.297266721725464e-01
40 1 2  3.440600204467773e+01  2.570186614990234e+01  2.461204528808594e+01 0 0 0  5.359158292412758e-02 -1.307763308286667e-01 -2.940906882286072e-01 -1.368056550647613e-01  8.153096068448258e-01 -5.582402387359949e-01  7.015905917853280e-02  2.202617377042770e-01  1.893365532159805e-01  2.432648465037346e-02
41 1 2  3.467317962646484e+01  2.575972938537598e+01  2.421593666076660e+01 0 0 0 -3.355894386768341e-01  2.409275025129318e-01  2.174047008156776e-02  1.706584096291694e-05  5.793975276875235e-01 -8.142763114986805e-01  3.539199274477725e-02  3.760303854942322e-01 -1.373740434646606e-01 -2.891755476593971e-02
42 1 2  3.488048934936523e+01  2.554836463928223e+01  2.367033576965332e+01 0 0 0  2.667844891548157e-01  1.429370790719986e-01  1.673495620489120e-01 -1.341817808453562e-01 -3.531367279732669e-01  9.258976203949932e-01  1.815927419521949e-03  1.105822529643774e-02 -2.353811115026474e-01 -9.738783352077007e-03
43 1 2  3.484984588623047e+01  2.522686004638672e+01  2.321142768859863e+01 0 0 0  2.401585578918457e-01 -1.725656688213348e-01  1.461104899644852e-01 -1.966017914068186e-01 -1.608690430109317e-01  9.649444967621410e-01 -6.596214660572605e-02  3.033095002174377e-01  1.945751160383224e-01  1.670450419187546e-01
44 1 2  3.467042160034180e+01  2.484776687622070e+01  2.289909172058105e+01 0 0 0  2.075908929109573e-01 -2.604452669620514e-01 -2.058025822043419e-02 -1.645507587719017e-01  2.076908810355461e-01  9.580533199572487e-01 -1.091850806711418e-01  1.524821966886520e-01 -1.657171845436096e-01  5.983146280050278e-02
45 1 2  3.434930419921875e+01  2.467937469482422e+01  2.250538444519043e+01 0 0 0 -4.519238695502281e-02  3.221919015049934e-02 -9.163173288106918e-02 -3.202399977207618e-01  2.802428795966942e-01  8.763989907081129e-01 -2.254663641897841e-01 -4.950402677059174e-02  1.776590198278427e-01  1.104133427143097e-01
46 1 2  3.382612228393555e+01  2.445869636535645e+01  2.235268020629883e+01 0 0 0  7.213555276393890e-02 -1.204473897814751e-01  5.980933830142021e-02 -2.678954265517353e-01  5.944663229214158e-01  6.569195028600390e-01 -3.785480129482577e-01 -1.321550458669662e-02  1.278506815433502e-01 -6.178921461105347e-02
47 1 2  3.329412841796875e+01  2.445439910888672e+01  2.240928649902344e+01 0 0 0 -5.749273672699928e-02  3.911977633833885e-02 -1.500587761402130e-01 -2.168742971283311e-01  7.401123583351653e-01  4.271452414319642e-01 -4.719599336878939e-01 -3.448120355606079e-01  2.351705133914948e-01  3.335319757461548e-01
48 1 2  3.282037734985352e+01  2.466045570373535e+01  2.234323692321777e+01 0 0 0 -1.980250626802444e-01 -1.643362343311310e-01 -1.227039564400911e-02 -9.308267841186964e-02  8.324023829913447e-01  1.140772154035862e-01 -5.342548798988803e-01  3.242657184600830e-01  1.307621598243713e-01  4.012680947780609e-01
49 1 2  3.246281051635742e+01  2.493024635314941e+01  2.212348556518555e+01 0 0 0  1.980832070112228e-01 -2.762929499149323e-01 -1.630879938602448e-01  3.662800619267344e-02  8.585003734097097e-01 -8.068087070473282e-02 -5.051000842605996e-01 -1.581613123416901e-01 -9.841689467430115e-02 -7.285642623901367e-02
50 1 2  3.229926300048828e+01  2.517854690551758e+01  2.187806892395020e+01 0 0 0  1.660073362290859e-02  1.358066797256470e-01 -9.668806940317154e-02  5.611902739191658e-02  7.679262645174172e-01 -4.279551885579341e-01 -4.732803224467025e-01  7.066481560468674e-02  2.391490787267685e-01  2.054717242717743e-01
51 1 2  3.204714965820312e+01  2.540478324890137e+01  2.138294982910156e+01 0 0 0  4.425780475139618e-01 -2.584846019744873e-01 -9.650432504713535e-03  3.173386751673310e-01  6.408570912724527e-01 -5.799423161838277e-01 -3.902118190267840e-01 -3.096862435340881e-01 -2.154321968555450e-01  2.923597991466522e-01
52 1 2  3.168950462341309e+01  2.527602767944336e+01  2.086768722534180e+01 0 0 0 -1.163186877965927e-01 -9.832859784364700e-02 -1.639008820056915e-01 -4.775317844965525e-01 -4.542799791468607e-01  7.074283164692269e-01  2.552220061032771e-01  9.476535022258759e-02 -3.830191493034363e-01  3.522870540618896e-01
53 1 2  3.140461540222168e+01  2.511226654052734e+01  2.044381523132324e+01 0 0 0 -1.055199205875397e-01 -1.936322152614594e-01  1.057846099138260e-01  5.616761995324742e-01  1.791832506533217e-01 -7.800506750908612e-01 -2.096047562779929e-01  1.761848106980324e-02 -2.642503976821899e-01 -5.393924584495835e-05
54 1 2  3.096835517883301e+01  2.488300323486328e+01  2.032168579101562e+01 0 0 0  1.879422664642334e-01 -4.534850269556046e-02  1.606308971531689e-03  6.507181538275419e-01 -1.049023804337157e-01 -7.513932417472072e-01 -3.113793691365126e-02 -1.745204776525497e-01 -1.873435676097870e-01 -1.604892760515213e-01
55 1 2  3.038493347167969e+01  2.466748046875000e+01  2.035189819335938e+01 0 0 0  1.621032059192657e-01  5.632583796977997e-02  3.681055009365082e-01  7.038146129663531e-01 -1.428264507091682e-01 -6.744635789170066e-01  1.713022949855232e-01  4.795712977647781e-02  1.157837286591530e-01 -2.611218206584454e-02
56 1 2  3.000511741638184e+01  2.445492362976074e+01  2.052741050720215e+01 0 0 0 -9.795466437935829e-03 -2.303379178047180e-01 -6.377307325601578e-02  6.294158455344451e-01 -3.380734442809067e-01 -5.726300063391888e-01  4.020409375948981e-01  2.461459301412106e-02  2.496764361858368e-01  1.255636662244797e-01
57 1 2  2.955389404296875e+01  2.439918708801270e+01  2.079350852966309e+01 0 0 0 -2.480329014360905e-02 -1.546437442302704e-01  1.501670330762863e-01 -4.768984256523108e-01  5.677872410678747e-01  3.925737675659270e-01 -5.441244136316361e-01 -1.054493784904480e-01  1.808754056692123e-01 -5.321698263287544e-03
58 1 2  2.909809684753418e+01  2.453533363342285e+01  2.108651351928711e+01 0 0 0  1.333660930395126e-01  2.535564638674259e-02  5.636281892657280e-02 -4.622921041317682e-01  5.940156927112537e-01  1.661954733906642e-01 -6.370325202802797e-01  3.016477525234222e-01 -2.151762545108795e-01  2.642688155174255e-01
59 1 2  2.881580924987793e+01  2.490929031372070e+01  2.139419937133789e+01 0 0 0 -1.339774206280708e-02  2.500258386135101e-01  1.467990130186081e-01 -2.207921077244398e-01  6.687847295013918e-01  4.408881362036303e-02 -7.085435817688976e-01 -2.784625813364983e-02  3.176777437329292e-02  2.472628802061081e-01
60 1 2  2.843005561828613e+01  2.530953025817871e+01  2.142994308471680e+01 0 0 0 -1.153610572218895e-01 -1.580062657594681e-01  1.081167384982109e-01  4.483220006002885e-02  6.832766353400171e-01 -2.021311789198470e-01 -7.001900455909637e-01  2.940235137939453e-01 -1.418404877185822e-01  3.482367843389511e-02
61 1 2  2.802611541748047e+01  2.567864418029785e+01  2.129952239990234e+01 0 0 0 -1.502966433763504e-01  2.701994776725769e-01  1.148707121610641e-01  2.952171156930173e-01  5.967744127848711e-01 -4.185233062522204e-01 -6.176936109195872e-01  8.673229813575745e-02 -2.870618999004364e-01 -2.119854539632797e-01
62 1 2  2.760216712951660e+01  2.570911788940430e+01  2.099984550476074e+01 0 0 0 -1.070761159062386e-01 -5.326908454298973e-02 -3.184890374541283e-02  5.762410211970573e-01  3.768771168498058e-01 -5.484622323159515e-01 -4.744461023211736e-01 -3.681328892707825e-01 -6.327294395305216e-04  3.686589300632477e-01
63 1 2  2.700329971313477e+01  2.562632179260254e+01  2.091981124877930e+01 0 0 0  1.121451929211617e-01 -4.826576635241508e-02  2.470373511314392e-01  7.786243213190358e-01  2.508700557474379e-01 -4.695414371129625e-01 -3.321734790943470e-01  1.790484786033630e-01 -2.253788560628891e-01  1.446865200996399e-01
64 1 2  2.649800109863281e+01  2.541401481628418e+01  2.104262542724609e+01 0 0 0  5.806310474872589e-02  5.219310894608498e-02  2.060593813657761e-01  8.855877134640238e-01  1.420756158893759e-01 -4.264507181075795e-01 -1.169987442528619e-01 -1.935162991285324e-01 -4.310276210308075e-01 -4.181409776210785e-01
65 1 2  2.623611831665039e+01  2.499821472167969e+01  2.125062179565430e+01 0 0 0  1.337485462427139e-01  3.001702725887299e-01 -1.386713385581970e-01  9.082424443422414e-01  1.447656174155031e-01 -3.575424378400640e-01  1.621788625343107e-01 -6.178907305002213e-02 -2.994073927402496e-01 -1.152523458003998e-01
66 1 2  2.615878105163574e+01  2.461817550659180e+01  2.164288330078125e+01 0 0 0 -8.986691385507584e-02  3.446666300296783e-01 -1.442832201719284e-01  8.206961935516440e-01 -4.372518137232956e-02 -3.341341382272088e-01  4.614111442899486e-01  1.840369105339050e-01  1.462286710739136e-01 -3.746867179870605e-02
67 1 2  2.620336151123047e+01  2.448246955871582e+01  2.219247817993164e+01 0 0 0  3.815041109919548e-02 -6.380159407854080e-02 -9.540675207972527e-03  5.787180638300912e-01 -1.095026610245030e-01 -2.756256895833006e-01  7.596874680202600e-01 -1.906142681837082e-01  9.627262130379677e-03  2.335574477910995e-03
68 1 2  2.623037910461426e+01  2.437843132019043e+01  2.263979911804199e+01 0 0 0  2.366944253444672e-01  2.595419585704803e-01 -6.443163007497787e-02  3.703165985197925e-01 -1.616361732586503e-01 -2.198000927572032e-01  8.879342788624367e-01 -7.800143212080002e-02 -3.854127526283264e-01  4.934750963002443e-03
69 1 2  2.618345642089844e+01  2.466669082641602e+01  2.315400505065918e+01 0 0 0  3.220197558403015e-02  1.829392760992050e-01 -1.497765537351370e-02  1.647785698409734e-01 -1.484201319198169e-01 -4.523553655786510e-02  9.740499132972550e-01  2.359244227409363e-01 -1.296074837446213e-01  1.119844391942024e-01
70 1 2  2.600778388977051e+01  2.491556930541992e+01  2.355439376831055e+01 0 0 0  3.149415552616119e-02  1.711116433143616e-01 -7.794208079576492e-02 -1.688382592899290e-01 -2.123966602798732e-01  2.735127459014440e-02  9.620983362838736e-01 -2.131180316209793e-01  2.136966884136200e-01  8.819778263568878e-02
71 1 2  2.568631553649902e+01  2.514898490905762e+01  2.392746162414551e+01 0 0 0  1.219476312398911e-01  2.791545167565346e-02 -2.825152315199375e-02 -3.860451835854525e-01 -2.632317053214264e-01  9.192910063101048e-02  8.793333986612936e-01 -2.127587050199509e-01  1.571369729936123e-02 -1.841402798891068e-02
72 1 2  2.524116516113281e+01  2.522488021850586e+01  2.411946678161621e+01 0 0 0 -1.332586407661438e-01 -3.399119079113007e-01  1.139710843563080e-01  6.473808730871051e-01  2.701070735284434e-01 -1.675181312586936e-01 -6.927321630258499e-01 -1.650464832782745e-01 -5.401556938886642e-02 -6.360363960266113e-02
73 1 2  2.471244812011719e+01  2.516053771972656e+01  2.438395309448242e+01 0 0 0 -2.866139821708202e-02 -3.432130217552185e-01  1.361244767904282e-01  8.533103011001516e-01  1.802366691029836e-01 -1.143812415935972e-01 -4.757028533849018e-01  1.451420187950134e-01  9.132690727710724e-02 -2.357177883386612e-01
74 1 2  2.438154602050781e+01  2.483620834350586e+01  2.460483551025391e+01 0 0 0  4.860671237111092e-02 -7.845687121152878e-02 -1.758769154548645e-01  9.616435312229060e-01  1.640549632797906e-01 -1.257857370106717e-01 -1.802931952267982e-01  3.634672984480858e-02 -2.321260273456573e-01  2.954937517642975e-01
75 2 3  2.548270797729492e+01  2.449890708923340e+01  2.483617401123047e+01 0 0 0  4.713147133588791e-02  9.654447436332703e-03  1.220299005508423e-01  8.177072726852870e-02  1.304742306931026e-01  9.862405126151004e-01 -6.016373129821064e-02 -1.561363488435745e-01 -1.173921227455139e-01 -7.792404387146235e-03
76 2 3  2.537715148925781e+01  2.413854026794434e+01  2.446235847473145e+01 0 0 0 -1.343417614698410e-01  2.161196433007717e-02 -1.092599481344223e-01  1.017720758110347e-01  4.594315406200253e-01  8.816343883085169e-01  3.585957920124271e-02 -2.808813452720642e-01  1.542440894991159e-02  2.450782358646393e-01
77 2 3  2.512044715881348e+01  2.400086402893066e+01  2.399747848510742e+01 0 0 0  6.725915521383286e-02  7.104999572038651e-02  8.074466139078140e-02  7.674795752120743e-02  7.429290951698663e-01  6.551395384881658e-01  1.138345100394426e-01 -1.525611337274313e-02 -5.392927676439285e-02  3.030731678009033e-01
78 2 3  2.497969627380371e+01  2.424143409729004e+01  2.351928710937500e+01 0 0 0 -6.030537188053131e-02 -3.320901989936829e-01  6.689276546239853e-02 -1.208073902065668e-02  8.934185586454123e-01  4.053833216084116e-01  1.931882433648585e-01 -2.249649614095688e-01  9.801073372364044e-02  2.109727859497070e-01
79 2 3  2.500279426574707e+01  2.459754562377930e+01  2.300247192382812e+01 0 0 0 -9.707188233733177e-03 -2.766808867454529e-01 -1.010355353355408e-01 -1.330766052686522e-01  9.499453959301594e-01  1.688702600603233e-01  2.266653858630013e-01  6.087623536586761e-02 -1.358418911695480e-01 -1.302065849304199e-01
80 2 3  2.514821624755859e+01  2.498876953125000e+01  2.270885467529297e+01 0 0 0 -2.643547654151917e-01 -1.763433218002319e-03  1.381719708442688e-01 -2.340787184280579e-01  9.335306911769949e-01 -9.400840293628270e-02  2.547352005260552e-01  1.651089191436768e-01  9.513629227876663e-02  7.459550350904465e-02
81 2 3  2.553264427185059e+01  2.531313323974609e+01  2.253942489624023e+01 0 0 0  1.070253923535347e-01 -4.052593186497688e-02  1.593091152608395e-02 -2.910461747898511e-01  8.194066488368710e-01 -4.575779562769431e-01  1.857075171110215e-01  4.760316014289856e-02 -3.534944653511047e-01  6.350366026163101e-02
82 2 3  2.593358802795410e+01  2.556895446777344e+01  2.239130210876465e+01 0 0 0 -1.209303736686707e-01 -1.437740679830313e-02  1.627576202154160e-01 -3.768029435805739e-01  7.300754086772387e-01 -5.418119231166719e-01  1.773394466056306e-01 -1.349755525588989e-01  4.768996685743332e-02 -1.104885712265968e-01
83 2 3  2.648882102966309e+01  2.561100196838379e+01  2.227271270751953e+01 0 0 0  8.824253082275391e-02  2.328551746904850e-02 -1.234654933214188e-01  4.020657611399622e-01 -4.730446869955569e-01  7.694421289920423e-01 -1.501021584002444e-01  3.585420316085219e-03  1.936482731252909e-03 -5.664656404405832e-03
84 2 3  2.689684677124023e+01  2.542347908020020e+01  2.215693664550781e+01 0 0 0 -1.298562884330750e-01  1.681087911128998e-01  6.150500848889351e-02  4.596389268211587e-01 -1.678183637529262e-01  8.678080410731009e-01 -8.647691938807482e-02  2.637139260768890e-01 -2.594762742519379e-01  1.492442563176155e-02
85 2 3  2.720767784118652e+01  2.506865692138672e+01  2.193809127807617e+01 0 0 0 -1.193094030022621e-01 -1.011630594730377e-01 -5.697361752390862e-02  4.833723704169940e-01  1.538872039642747e-01  8.617827928324847e-01 -5.458492070072127e-04  2.989184856414795e-01  2.758576273918152e-01  1.013512760400772e-01
86 2 3  2.743196105957031e+01  2.469308471679688e+01  2.161421203613281e+01 0 0 0  1.389303654432297e-01  3.150758519768715e-02 -1.994836479425430e-01  4.239524787794812e-01  4.002385771517999e-01  7.907877490444555e-01  1.863548042242001e-01  3.882587328553200e-02  2.229478210210800e-01  2.582948505878448e-01
87 2 3  2.749557495117188e+01  2.456569671630859e+01  2.113046646118164e+01 0 0 0  6.439036130905151e-02  7.834184914827347e-02 -2.659937143325806e-01  3.868554350499629e-01  6.533086411099861e-01  5.731000099054031e-01  3.083619147523805e-01  3.571568131446838e-01  1.616263091564178e-01 -5.315075442194939e-02
88 2 3  2.787860107421875e+01  2.468792724609375e+01  2.064833641052246e+01 0 0 0  1.627934128046036e-01 -9.439571201801300e-02 -2.925956249237061e-01  2.587816528649965e-01  7.219669229002723e-01  3.909790217583241e-01  5.088528499706734e-01  2.576701045036316e-01 -1.989846378564835e-01  3.136249631643295e-02
89 2 3  2.833908653259277e+01  2.486955451965332e+01  2.032819366455078e+01 0 0 0  2.981488779187202e-02 -1.235673353075981e-01 -4.602763801813126e-02  1.291929795485463e-01  7.307396498004664e-01  1.997274874864647e-01  6.398731663284568e-01  8.228966593742371e-02 -3.824868053197861e-02  1.719119548797607e-01
90 2 3  2.866885566711426e+01  2.522047615051270e+01  2.021579360961914e+01 0 0 0 -5.294723063707352e-02 -9.578534215688705e-02 -5.159771069884300e-02 -1.220448013697013e-01  7.429093167237647e-01 -9.587778184535956e-02  6.511514912307834e-01 -2.481788545846939e-01  3.096229732036591e-01 -7.134736329317093e-02
91 2 3  2.922780990600586e+01  2.539136695861816e+01  2.024288558959961e+01 0 0 0  1.481417715549469e-01 -3.932344168424606e-02 -1.725671440362930e-01 -2.013012325791154e-01  6.500311833463135e-01 -2.489118980460686e-01  6.891880305479949e-01  2.465278208255768e-01  3.107173144817352e-01  4.042816534638405e-02
92 2 3  2.957403564453125e+01  2.558504867553711e+01  2.054302978515625e+01 0 0 0  1.640137583017349e-01  9.862410277128220e-02  9.793308377265930e-02 -4.800123461007471e-01  4.990217892347899e-01 -4.229518883947101e-01  5.845315231560352e-01 -2.448691874742508e-01  4.154874682426453e-01 -3.459456562995911e-02
93 2 3  2.998816108703613e+01  2.553482055664062e+01  2.096158599853516e+01 0 0 0  8.066620677709579e-02 -6.568013876676559e-02  2.616412341594696e-01  6.246315183578326e-01 -2.847971653606269e-01  4.917219267085273e-01 -5.356636889603348e-01 -6.414391100406647e-04 -8.143085241317749e-02 -2.842969261109829e-02
94 2 3  3.026782798767090e+01  2.526629638671875e+01  2.128810119628906e+01 0 0 0  6.844409555196762e-02  2.780981734395027e-02  8.537579327821732e-02  8.283010387779699e-01 -8.209656930365723e-02  5.105248131650738e-01 -2.157358514727497e-01  1.598494201898575e-01  2.358741909265518e-01  8.490484952926636e-02
95 2 3  3.070298385620117e+01  2.489112663269043e+01  2.148429107666016e+01 0 0 0  2.330393642187119e-01 -3.241601586341858e-02 -3.088243901729584e-01  7.826034216184243e-01  9.663916397790241e-02  6.124551276023920e-01 -5.560101734972814e-02 -2.339871972799301e-01 -1.953421831130981e-01  1.185449771583080e-02