LAMMPS (19 Nov 2024 - Development - patch_19Nov2024-564-gf96768effb-modified)
OMP_NUM_THREADS environment is not set. Defaulting to 1 thread. (src/comm.cpp:99)
  using 1 OpenMP thread(s) per MPI task
###
# Box and units  (use LJ units and periodic boundaries)
###

units           lj
atom_style      ellipsoid
dimension	3
boundary	p p p

lattice		sc 0.75
Lattice spacing in x,y,z = 1.1006424 1.1006424 1.1006424
region		box block 0 64 0 64 0 64
create_box	1 box
Created orthogonal box = (0 0 0) to (70.441115 70.441115 70.441115)
  2 by 1 by 2 MPI processor grid
create_atoms	1 box
Created 262144 atoms
  using lattice units in orthogonal box = (0 0 0) to (70.441115 70.441115 70.441115)
  create_atoms CPU = 0.004 seconds

group           all type 1
262144 atoms in group all
set             type 1 mass 1.0
Setting atom values ...
  262144 settings made for mass
set             type 1 shape 1.0 0.4 0.8
Setting atom values ...
  262144 settings made for shape
set             type 1 quat/random 29898
Setting atom values ...
  262144 settings made for quat/random

velocity 	all create 0.1 87287 loop geom

neighbor        0.3 bin
neigh_modify    delay 0 every 100 check yes

###################################################################
# Pair interaction between non-bonded atoms
#
#  Lennard-Jones 12-6 potential with cutoff:
#  potential E=4epsilon[ (sigma/r)^12 - (sigma/r)^6]  for r<r_cut
#
#  1.12246152962189 = 2^(1/6) is the minimum of the potential

pair_style      lj/cut 1.12246152962189

#
#  pair_coeff for lj/cut, specify 4:
#    * atom type interacting with
#    * atom type
#    * epsilon (energy units)
#    * sigma (distance units)
#

pair_coeff      1 1 1.0 1.1

#
#  pair_modify shift yes adds a constant to the potential such
#  that E(r_cut)=0. Forces remains unchanged.
#

pair_modify     shift yes

###################################################
reset_atoms 	id sort yes
Resetting atom IDs ...
Generated 0 of 0 mixed pair_coeff terms from geometric mixing rule
Neighbor list info ...
  update: every = 100 steps, delay = 0 steps, check = yes
  max neighbors/atom: 2000, page size: 100000
  master list distance cutoff = 1.4224615
  ghost atom cutoff = 1.4224615
  binsize = 0.71123076, bins = 100 100 100
  1 neighbor lists, perpetual/occasional/extra = 1 0 0
  (1) pair lj/cut, perpetual
      attributes: half, newton on
      pair build: half/bin/atomonly/newton
      stencil: half/bin/3d
      bin: standard

comm_modify cutoff 6
#comm_style tiled
#balance 1.2 rcb

###
# Set up fixes
###

fix 1 all   nve   ###NVE ensemble
#fix 2 all   langevin   1.0 1.0   2.0   424242   ###Langevin integrator Tstart Tstop 1/friction rndseed

compute ekin all ke
compute epot all pe
variable ekin equal c_ekin
variable epot equal c_epot
variable etot equal c_ekin+c_epot

fix 3 all print 5000 "$(step)  ekin = ${ekin} | epot = ${epot} | etot = ${etot}" screen yes

compute q all property/atom quatw quati quatj quatk
compute diameter all property/atom shapex shapey shapez
dump 1 all custom 5000 dump.polymer id type x y z c_q[1] c_q[2] c_q[3] c_q[4] c_diameter[1] c_diameter[2] c_diameter[3]
dump_modify 1 colname c_q[1] quatw colname c_q[2] quati colname c_q[3] quatj colname c_q[4] quatk

###################################################

timestep 0.0001 #0.012

run 20000
Generated 0 of 0 mixed pair_coeff terms from geometric mixing rule
0  ekin = 39321.4499999999 | epot = 307296.108288868 | etot = 346617.558288867
Per MPI rank memory allocation (min/avg/max) = 52.81 | 52.81 | 52.81 Mbytes
   Step          Temp          E_pair         E_mol          TotEng         Press     
         0   0.1            1.1722416      0              1.3222411      17.886605    
5000  ekin = 211870.453220747 | epot = 134748.52578818 | etot = 346618.979008926
10000  ekin = 223996.828466792 | epot = 122623.186573199 | etot = 346620.015039991
15000  ekin = 226602.228919053 | epot = 120019.63508205 | etot = 346621.864001103
20000  ekin = 227410.539143077 | epot = 119212.846395845 | etot = 346623.385538922
     20000   0.57833711     0.45476092     0              1.3222633      6.3048357    
Loop time of 152.865 on 4 procs for 20000 steps with 262144 atoms

Performance: 1130.411 tau/day, 130.835 timesteps/s, 34.298 Matom-step/s
93.3% CPU use with 4 MPI tasks x 1 OpenMP threads

MPI task timing breakdown:
Section |  min time  |  avg time  |  max time  |%varavg| %total
---------------------------------------------------------------
Pair    | 34.227     | 34.49      | 34.76      |   3.5 | 22.56
Neigh   | 0.7467     | 0.74767    | 0.74846    |   0.1 |  0.49
Comm    | 79.63      | 79.939     | 80.293     |   3.3 | 52.29
Output  | 0.30005    | 0.31088    | 0.32076    |   1.4 |  0.20
Modify  | 20.729     | 20.788     | 20.858     |   1.0 | 13.60
Other   |            | 16.59      |            |       | 10.85

Nlocal:          65536 ave       65560 max       65523 min
Histogram: 2 0 0 1 0 0 0 0 0 1
Nghost:          72463 ave       72522 max       72416 min
Histogram: 1 0 0 1 1 0 0 0 0 1
Neighs:         334146 ave      334861 max      333331 min
Histogram: 1 1 0 0 0 0 0 0 0 2

Total # of neighbors = 1336583
Ave neighs/atom = 5.0986595
Neighbor list builds = 43
Dangerous builds = 0

write_data data_out.* nocoeff
System init for write_data ...
Generated 0 of 0 mixed pair_coeff terms from geometric mixing rule
Total wall time: 0:02:33
