ITEM: TIMESTEP
0
ITEM: NUMBER OF ATOMS
16
ITEM: BOX BOUNDS pp pp pp
-2.0000000000000000e+01 2.0000000000000000e+01
-2.0000000000000000e+01 2.0000000000000000e+01
-2.0000000000000000e+01 2.0000000000000000e+01
ITEM: ATOMS id mol type x y z ix iy iz vx vy vz c_quat[1] c_quat[2] c_quat[3] c_quat[4] angmomx angmomy angmomz
1 1 1 -6.133472972454683e-01 -6.574781716697657e-01  3.606522635120193e-01 0 0 0  5.386890022865587e-02  2.262922525602673e-02  2.488229114473675e-01  9.964752158482045e-01 -5.325355573323980e-02  1.139116380710251e-02 -6.380787090289707e-02  1.772010258006941e-01 -2.958853170000101e-01 -2.624137503614725e-01
2 1 2 -4.526276424735620e-01 -1.003065053434590e+00  7.258693379233350e-01 0 0 0 -3.995003075629463e-02  2.696951106370198e-01 -1.898645454819566e-01  9.369923833143513e-01  1.122071604464856e-01  6.732538499716349e-02  3.239168400846305e-01 -3.061453937596818e-02 -1.176951893148060e-01  4.007470242647321e-02
3 1 3 -9.883421085226374e-02 -1.239775807128058e+00  1.069462285786361e+00 0 0 0 -2.078453529520138e-01 -1.362872235767304e-01 -6.062477950201746e-02  7.979649320918270e-01  1.447309635452787e-01  1.837414269936639e-01  5.554673737937029e-01 -3.676034584820381e-02 -6.308707793373186e-02 -1.479860157608762e-01
4 1 4  2.937771854299740e-01 -1.257975092489986e+00  1.425891608660695e+00 0 0 0 -2.396982418131700e-01 -5.624721730878831e-01  3.247442290503672e-02  5.660864821344559e-01  1.468827549948105e-01  9.873742533340191e-02  8.051226439917721e-01 -1.652364596501651e-01  2.860623077030974e-01  3.354351975310588e-01
5 1 1  6.286896795685166e-01 -1.018334339511973e+00  1.768934633967284e+00 0 0 0 -1.611489735682835e-01 -2.288969747076015e-01 -1.355332496264956e-01  2.533023785125306e-01  1.206231316167983e-01  8.583012223905846e-02  9.559922359911086e-01  7.151030852881342e-02 -9.415592891043179e-02  1.342288153931229e-01
6 1 2  7.901522619067975e-01 -6.766341805565261e-01  2.154016070549574e+00 0 0 0 -4.701706588477693e-02  1.921671558511004e-01  1.458824279129722e-01 -3.855807343534716e-02  8.405913137017908e-02  2.236505169306371e-02  9.954632800204194e-01  9.218622989776322e-02 -5.640128930702024e-01  9.287105657777776e-02
7 1 3  7.115777184886873e-01 -4.019557932514353e-01  2.569568683291529e+00 0 0 0  5.098438305112513e-02 -3.845955552200959e-02 -1.424419628574967e-01 -4.559284433024802e-01  1.004550065061007e-01 -5.252474529475878e-02  8.827679181910482e-01  3.479046835475834e-01  4.244922695910593e-01 -1.358288260435836e-01
8 1 4  4.697331037700536e-01 -3.025169796710685e-01  3.066800711751920e+00 0 0 0  3.782797134841193e-01 -4.953992506010833e-02  1.626392045834847e-01  7.680212215404908e-01 -9.582139884533597e-03  3.658677589040892e-02 -6.393066507464399e-01  4.428876596361290e-02  7.868414126013584e-02 -1.271360044432503e-01
9 2 1  4.056113349449895e-01 -1.443775499211899e+00  3.059072650334112e+00 0 0 0  4.912038408665491e-02  4.126064731871670e-02  1.222385633449523e-02 -2.329997575451234e-01  6.886863952313410e-01  6.747873944883376e-01 -1.268232401684158e-01  3.282916621721876e-02 -1.267054709525600e-04  1.559787854176960e-01
10 2 2 -3.202842905928804e-02 -1.294752097116472e+00  2.720107115139218e+00 0 0 0  1.939216183073483e-01  1.107523548538194e-01 -4.050505160199710e-02 -2.466206187190723e-01  8.744456399178389e-01  3.937083608782400e-01 -1.397026120939516e-01 -1.700813500181381e-01 -4.563093565840761e-01 -3.031851362703951e-01
11 2 3 -3.161385511231423e-01 -9.084141759061595e-01  2.412520787178206e+00 0 0 0 -3.513607339206460e-01 -1.882241906753569e-01  3.614793819905130e-01 -8.747590085090901e-02  9.773676023882290e-01  1.449354911309558e-01 -1.268630757266878e-01 -3.708221604627426e-01 -4.910838182594122e-01  9.435948331955418e-02
12 2 4 -3.893939125182087e-01 -4.866605488242826e-01  2.006177777000424e+00 0 0 0 -1.188642917357977e-01  2.235528245655188e-01  9.265586122144348e-03 -3.181169300779214e-02  9.634374984140114e-01 -2.442360692534372e-01 -1.054748563087919e-01 -2.823010018885836e-01  1.027648566082889e-01  1.017523347678070e-01
13 3 1 -6.232643040853247e-02 -7.155965522127516e-02  1.559320605273072e+00 0 0 0 -1.446616296238799e-01 -1.155205990978724e-01  1.331477187595642e-01 -3.278607069657226e-02  7.922941528811774e-01 -6.084214170523914e-01 -3.191282109962716e-02 -2.549872189037434e-01  2.754663721641154e-01  5.806416868630132e-02
14 3 2  1.788409039091334e-01 -5.516721349427200e-02  1.021273149730916e+00 0 0 0  5.154712003586254e-02 -3.661102651077563e-01 -6.630782880801242e-02  4.718868628834144e-02  6.316396208287697e-01 -7.737349519945346e-01  1.178309584462780e-02 -1.199984717331652e-01  6.844768922886051e-02  2.161595932308759e-01
15 3 3  4.513439961906016e-01 -2.379560738327449e-01  5.957328539616000e-01 0 0 0 -2.021424496209139e-01  2.334122693355961e-01  8.133374252278069e-03 -5.869980642620334e-02 -3.422935820341442e-01  9.376740835056506e-01  1.251996587850869e-02 -1.701391112413525e-01  1.870292260510287e-02 -2.682954134361106e-01
16 3 4  5.077649359807950e-01 -5.565625134533541e-01  1.655875784458836e-01 0 0 0 -1.920213116286801e-01 -8.105295741355378e-02 -4.693508108850740e-02 -8.582818143150042e-02  8.707732197394232e-04  9.939540921464659e-01 -6.846917358531610e-02  1.733210765264759e-02 -3.287658886280769e-01  1.085334141225924e-01
ITEM: TIMESTEP
1000
ITEM: NUMBER OF ATOMS
16
ITEM: BOX BOUNDS pp pp pp
-2.0000000000000000e+01 2.0000000000000000e+01
-2.0000000000000000e+01 2.0000000000000000e+01
-2.0000000000000000e+01 2.0000000000000000e+01
ITEM: ATOMS id mol type x y z ix iy iz vx vy vz c_quat[1] c_quat[2] c_quat[3] c_quat[4] angmomx angmomy angmomz
1 1 1 -6.128545589443383e-01 -6.572782206636760e-01  3.630256563427787e-01 0 0 0  4.468338033585673e-02  1.735482056450792e-02  2.253940706152236e-01  9.964224970023073e-01 -5.088361678026931e-02  8.586467369864815e-03 -6.692785361231762e-02  1.960679446573348e-01 -2.454250850252238e-01 -2.582131575609430e-01
2 1 2 -4.530723804996988e-01 -1.000382610259296e+00  7.238966548375257e-01 0 0 0 -4.901254743386799e-02  2.664820379152250e-01 -2.039423043757153e-01  9.369692081554845e-01  1.113069862948274e-01  6.645657360140074e-02  3.244733911981216e-01 -5.969172724761197e-02 -8.601352658271312e-02  4.536338394418219e-02
3 1 3 -1.009361181104183e-01 -1.241078276892965e+00  1.069072334890731e+00 0 0 0 -2.124990695642024e-01 -1.242173119254130e-01 -1.732763857957025e-02  7.990978700084835e-01  1.445347092414851e-01  1.827306137535834e-01  5.542218281244640e-01  3.881231800182063e-02 -1.011645493477268e-01 -1.536092226145412e-01
4 1 4  2.913984153524317e-01 -1.263500603082054e+00  1.426135065686428e+00 0 0 0 -2.359388636996926e-01 -5.424287211508585e-01  1.646347776923813e-02  5.629474683596519e-01  1.479083943668152e-01  1.028112200214909e-01  8.066245147408938e-01 -1.979043216223570e-01  2.746785788789266e-01  3.384670487310725e-01
5 1 1  6.271442722932625e-01 -1.020672510295656e+00  1.767554693354947e+00 0 0 0 -1.479873922280675e-01 -2.384791078294925e-01 -1.400113172801916e-01  2.518068332756083e-01  1.196779689567066e-01  8.495001429085247e-02  9.565845480322644e-01  7.364623366558831e-02 -9.148829897328993e-02  1.363600068356614e-01
6 1 2  7.897741868916218e-01 -6.747409984240076e-01  2.155542025334179e+00 0 0 0 -2.904463337706276e-02  1.860693681992506e-01  1.601605757071499e-01 -3.969346767783898e-02  7.777153177775281e-02  2.166696134387534e-02  9.959450588535360e-01  8.910062172548340e-02 -5.214176546789180e-01  1.148139407301702e-01
7 1 3  7.121268153484521e-01 -4.022660851812876e-01  2.568261784822309e+00 0 0 0  5.908201885567208e-02 -2.351539192627633e-02 -1.186015480011238e-01 -4.546764081534143e-01  1.029337257608786e-01 -5.832491963944987e-02  8.827639637631035e-01  3.243800860879144e-01  4.282645234030086e-01 -1.344857741133330e-01
8 1 4  4.735333315852705e-01 -3.030017069173672e-01  3.068421211695806e+00 0 0 0  3.816945321820555e-01 -4.738950167558199e-02  1.613741172105987e-01  7.670134020102658e-01 -9.811438755383583e-03  3.759840991897887e-02 -6.404533834540593e-01  2.881646748494289e-02  8.665870617437248e-02 -1.386291258995384e-01
9 2 1  4.060800943868810e-01 -1.443400168968615e+00  3.059079506635956e+00 0 0 0  4.466582875874568e-02  3.380576115966183e-02 -1.083580882241918e-02 -2.329174917223535e-01  6.874201723884755e-01  6.760552550584141e-01 -1.270914660827735e-01  5.267698489286634e-03 -9.575711147436012e-04  1.571976354068326e-01
10 2 2 -3.011332024212841e-02 -1.293647528236008e+00  2.719689346502227e+00 0 0 0  1.887526018409608e-01  1.100957626729050e-01 -4.316223654600407e-02 -2.431708375789963e-01  8.770015480304272e-01  3.917517744966622e-01 -1.351546361841882e-01 -2.009901808249843e-01 -4.498921021547952e-01 -2.805120691342752e-01
11 2 3 -3.197721324367698e-01 -9.102606873258523e-01  2.416066169624782e+00 0 0 0 -3.747874796454908e-01 -1.807358784402472e-01  3.463084576577766e-01 -8.242266850615919e-02  9.782747528214368e-01  1.458384557297499e-01 -1.221317179885819e-01 -3.636931771191804e-01 -4.733678547190886e-01  7.596372379865227e-02
12 2 4 -3.906336217990284e-01 -4.844481037590400e-01  2.006353278916909e+00 0 0 0 -1.289867238916838e-01  2.186301530489390e-01  2.568953490888788e-02 -2.829205910057384e-02  9.636920032112827e-01 -2.435085194096330e-01 -1.058342256238659e-01 -2.805914656879977e-01  9.861996616937446e-02  9.753394751326788e-02
13 3 1 -6.374522042917515e-02 -7.279130092478757e-02  1.560551276800170e+00 0 0 0 -1.391897172054757e-01 -1.309044587137724e-01  1.126398242641665e-01 -2.859024592186598e-02  7.927340002690799e-01 -6.080135847477776e-01 -3.278541470939231e-02 -2.309231392120882e-01  2.845639609271944e-01  7.279934480503805e-02
14 3 2  1.793744902497790e-01 -5.886369482935424e-02  1.020589410432399e+00 0 0 0  5.503011440890558e-02 -3.729581977451580e-01 -7.046343903736127e-02  4.849016445138336e-02  6.335342699107893e-01 -7.720945291238862e-01  1.237218238814259e-02 -9.002529568635882e-02  5.943863697492573e-02  2.213383935774872e-01
15 3 3  4.493551641944919e-01 -2.356150504989240e-01  5.958936808494716e-01 0 0 0 -1.954925220507965e-01  2.346271452545379e-01  2.373242508471237e-02 -5.967889644911439e-02 -3.392717458642636e-01  9.387313725484466e-01  1.079453427158353e-02 -2.025149583924646e-01  3.369721599921181e-02 -2.678559463880972e-01
16 3 4  5.058653490453408e-01 -5.573665912792796e-01  1.651745796329551e-01 0 0 0 -1.879574895965475e-01 -7.953075583930061e-02 -3.556180523399546e-02 -8.205573671822448e-02 -1.357955342725527e-04  9.942807790365106e-01 -6.835619993644984e-02  2.040446002901170e-02 -3.165746406535182e-01  1.085236685769199e-01
ITEM: TIMESTEP
2000
ITEM: NUMBER OF ATOMS
16
ITEM: BOX BOUNDS pp pp pp
-2.0000000000000000e+01 2.0000000000000000e+01
-2.0000000000000000e+01 2.0000000000000000e+01
-2.0000000000000000e+01 2.0000000000000000e+01
ITEM: ATOMS id mol type x y z ix iy iz vx vy vz c_quat[1] c_quat[2] c_quat[3] c_quat[4] angmomx angmomy angmomz
1 1 1 -6.124536056475429e-01 -6.571308024866618e-01  3.651510089297986e-01 0 0 0  3.550310307114476e-02  1.216226030421630e-02  1.992207761428280e-01  9.963566167823977e-01 -4.833778166308438e-02  6.382915102921406e-03 -6.997291942326889e-02  2.147087735206491e-01 -1.930365092578009e-01 -2.551041631825613e-01
2 1 2 -4.536076139575357e-01 -9.977417743779184e-01  7.218069182467938e-01 0 0 0 -5.799274764521205e-02  2.613624878783431e-01 -2.130967918714521e-01  9.369395130218661e-01  1.102202982928794e-01  6.601284150778901e-02  3.250202140462108e-01 -8.484296926946866e-02 -5.885204525097694e-02  4.917713606778514e-02
3 1 3 -1.030836710051136e-01 -1.242260192873947e+00  1.069115336173556e+00 0 0 0 -2.169952139992617e-01 -1.121609457093852e-01  2.585144210513317e-02  8.002143217404410e-01  1.447983480518908e-01  1.808824710544411e-01  5.531473667551613e-01  1.136514614891272e-01 -1.389256286330488e-01 -1.582021177883046e-01
4 1 4  2.890607766971297e-01 -1.268819918868436e+00  1.426226141348670e+00 0 0 0 -2.314693279776189e-01 -5.212601883112276e-01  2.029827525599349e-03  5.598454568231546e-01  1.486261449248105e-01  1.070956318358949e-01  8.080927293082976e-01 -2.264581081817821e-01  2.637043679391686e-01  3.378537945278277e-01
5 1 1  6.257284326990294e-01 -1.023098464509047e+00  1.766143488937182e+00 0 0 0 -1.352742670763655e-01 -2.464249381801140e-01 -1.417678422568305e-01  2.502808390712263e-01  1.187849091780748e-01  8.405714979151210e-02  9.571750323291383e-01  7.652679357544978e-02 -8.553884611616282e-02  1.381697689230269e-01
6 1 2  7.895627657036860e-01 -6.729203034043142e-01  2.157234302962685e+00 0 0 0 -1.364611192790453e-02  1.777206746054959e-01  1.789336302473480e-01 -4.108254995128773e-02  7.203118905783647e-02  2.101095411397203e-02  9.963344176026615e-01  8.421053993416779e-02 -4.676061282019967e-01  1.359126805882686e-01
7 1 3  7.127637804723883e-01 -4.024245218373267e-01  2.567202518616705e+00 0 0 0  6.850523589275274e-02 -8.096595400140462e-03 -9.300054649414027e-02 -4.534019840717127e-01  1.055767608763362e-01 -6.388839742423212e-02  8.827221879375520e-01  2.986279637981817e-01  4.318320086720759e-01 -1.304302347461208e-01
8 1 4  4.773654986187278e-01 -3.034643199278039e-01  3.070026543274480e+00 0 0 0  3.846608250743569e-01 -4.510436738348420e-02  1.596133862187105e-01  7.659111064025697e-01 -1.022766979558926e-02  3.857297776764618e-02 -6.417068623958143e-01  1.434279595908542e-02  9.500826138374834e-02 -1.506470376907713e-01
9 2 1  4.065054471509384e-01 -1.443099438379994e+00  3.058856466916228e+00 0 0 0  4.044983548732679e-02  2.633467031386042e-02 -3.373535548723759e-02 -2.326104686138002e-01  6.862223007087401e-01  6.772879810285359e-01 -1.275629830929068e-01 -2.151459761810181e-02 -2.340725057121232e-03  1.569394463918913e-01
10 2 2 -2.825993010818414e-02 -1.292551557305947e+00  2.719242161720612e+00 0 0 0  1.816182170999979e-01  1.090257178479663e-01 -4.633237047163311e-02 -2.393894994484335e-01  8.794851564962797e-01  3.899551567977291e-01 -1.308950065640456e-01 -2.334382947220498e-01 -4.400566597690939e-01 -2.539463581166382e-01
11 2 3 -3.236232030483877e-01 -9.120225658131205e-01  2.419423246172149e+00 0 0 0 -3.948918373849858e-01 -1.713508315955938e-01  3.240361531468622e-01 -7.749963647829691e-02  9.791278780797170e-01  1.465164870393370e-01 -1.176236529720721e-01 -3.582578914183898e-01 -4.456769453842426e-01  5.783248555697110e-02
12 2 4 -3.919714526577708e-01 -4.822941940278374e-01  2.006688039796328e+00 0 0 0 -1.384522417391404e-01  2.118333880799222e-01  4.105787806703420e-02 -2.481190147829474e-02  9.639244574823912e-01 -2.428261073202240e-01 -1.061578608300697e-01 -2.778854409343107e-01  9.579077493350174e-02  9.234596193210468e-02
13 3 1 -6.511218083096947e-02 -7.417938778025016e-02  1.561566923041573e+00 0 0 0 -1.343036173163313e-01 -1.467815409951446e-01  9.019000384877951e-02 -2.455815469850762e-02  7.932456043193794e-01 -6.074597355176391e-01 -3.392606653631872e-02 -2.036291104761716e-01  2.939750569411599e-01  8.620397969490637e-02
14 3 2  1.799388320873988e-01 -6.262192751691660e-02  1.019863902323779e+00 0 0 0  5.771043668356261e-02 -3.784708009399047e-01 -7.461173255691943e-02  4.948833838825784e-02  6.354797770850791e-01 -7.704242776182102e-01  1.275890810086872e-02 -5.908328763632079e-02  5.039252940315120e-02  2.252295940058518e-01
15 3 3  4.474365167829847e-01 -2.332669280018150e-01  5.962005773843012e-01 0 0 0 -1.881310139142872e-01  2.348228625503485e-01  3.725520636604230e-02 -6.092408055693825e-02 -3.362371057964181e-01  9.397635984944728e-01  8.788858780272350e-03 -2.316000934807760e-01  4.578511302660748e-02 -2.654986967919195e-01
16 3 4  5.040044943060868e-01 -5.581487831911464e-01  1.648776643681406e-01 0 0 0 -1.842792366387266e-01 -7.670612949623061e-02 -2.378727918875155e-02 -7.843005838968810e-02 -1.140655785212612e-03  9.945826412147076e-01 -6.821139669986373e-02  2.253768189174626e-02 -3.031428855980000e-01  1.060819588767033e-01
ITEM: TIMESTEP
3000
ITEM: NUMBER OF ATOMS
16
ITEM: BOX BOUNDS pp pp pp
-2.0000000000000000e+01 2.0000000000000000e+01
-2.0000000000000000e+01 2.0000000000000000e+01
-2.0000000000000000e+01 2.0000000000000000e+01
ITEM: ATOMS id mol type x y z ix iy iz vx vy vz c_quat[1] c_quat[2] c_quat[3] c_quat[4] angmomx angmomy angmomz
1 1 1 -6.121447307020600e-01 -6.570339274839925e-01  3.670009048848097e-01 0 0 0  2.625183830616417e-02  7.282981407010706e-03  1.702961466204675e-01  9.962796700265300e-01 -4.562199240851745e-02  4.802255890689115e-03 -7.295472047007234e-02  2.331091739775779e-01 -1.389358163852034e-01 -2.527464511806109e-01
2 1 2 -4.542309122582179e-01 -9.951618300102069e-01  7.196544424845240e-01 0 0 0 -6.657803118610300e-02  2.543050007899825e-01 -2.163416730312765e-01  9.369076404590816e-01  1.089774231395239e-01  6.592014937728370e-02  3.255495790219091e-01 -1.050222063747228e-01 -3.742212302920590e-02  5.111433560618904e-02
3 1 3 -1.052758576675837e-01 -1.243321316588271e+00  1.069586700404031e+00 0 0 0 -2.214409159349526e-01 -1.000529215673298e-01  6.823037869865602e-02  8.013039342089543e-01  1.455108042797016e-01  1.782117038672498e-01  5.522492186176982e-01  1.865622470151286e-01 -1.760851161545856e-01 -1.612528778588972e-01
4 1 4  2.867714299305295e-01 -1.273922564309761e+00  1.426181485803775e+00 0 0 0 -2.262798290418708e-01 -4.991181894660733e-01 -1.065777534579244e-02  5.568071083860774e-01  1.490736622344438e-01  1.115478793525866e-01  8.095059962042820e-01 -2.504599254256870e-01  2.532791566096695e-01  3.335241858137432e-01
5 1 1  6.244365786082686e-01 -1.025595026362758e+00  1.764728632082397e+00 0 0 0 -1.232221236382467e-01 -2.525772207156375e-01 -1.407389158206891e-01  2.487242628789963e-01  1.179826982336610e-01  8.315222334416024e-02  9.577588588604796e-01  8.014051962000222e-02 -7.630077592233546e-02  1.395744899369512e-01
6 1 2  7.894937191581302e-01 -6.711930112095075e-01  2.159131070822614e+00 0 0 0 -5.103262335797741e-04  1.674436572431168e-01  2.008191358276975e-01 -4.271412925997467e-02  6.695474093541755e-02  2.040918317452277e-02  9.966323449848405e-01  7.768690947984581e-02 -4.050548114256013e-01  1.557099683772180e-01
7 1 3  7.135002564793435e-01 -4.024265569946726e-01  2.566405983148963e+00 0 0 0  7.892946847277485e-02  7.761053527420166e-03 -6.613559383119939e-02 -4.521284515786471e-01  1.083912713930155e-01 -6.919046559308741e-02  8.826346214770370e-01  2.713161964177014e-01  4.347374221779824e-01 -1.240990807745849e-01
8 1 4  4.812249282107200e-01 -3.039031018866238e-01  3.071611963790843e+00 0 0 0  3.871413641151623e-01 -4.261177314594620e-02  1.573974436053558e-01  7.647093920178252e-01 -1.082414678958702e-02  3.952097327783201e-02 -6.430711284742759e-01  9.039386280519823e-04  1.037172038752709e-01 -1.632580649936492e-01
9 2 1  4.068900955346397e-01 -1.442873644790826e+00  3.058405747932144e+00 0 0 0  3.653500803890458e-02  1.881295289655369e-02 -5.635001044761876e-02 -2.320835608125305e-01  6.851028273611033e-01  6.784763491079129e-01 -1.282231665635996e-01 -4.737523511702884e-02 -4.291113481278324e-03  1.551739022647537e-01
10 2 2 -2.648668729871464e-02 -1.291468569837364e+00  2.718762082127633e+00 0 0 0  1.727641792723472e-01  1.074881806767568e-01 -4.968845376349074e-02 -2.352733938479356e-01  8.818796901064585e-01  3.883469556461414e-01 -1.269696198520938e-01 -2.668312570642423e-01 -4.273558943008682e-01 -2.241864028638364e-01
11 2 3 -3.276597795084739e-01 -9.136824775650702e-01  2.422527939845819e+00 0 0 0 -4.119400318062644e-01 -1.603969283966596e-01  2.960778506003950e-01 -7.270500884156390e-02  9.799214330339932e-01  1.469633653705977e-01 -1.134448588914534e-01 -3.540575121785108e-01 -4.099785306307770e-01  3.986560946604274e-02
12 2 4 -3.933998192609741e-01 -4.802179052237234e-01  2.007169864458191e+00 0 0 0 -1.470652068786155e-01  2.030966964462155e-01  5.505783224274312e-02 -2.138025659776705e-02  9.641305770840582e-01 -2.421988020193333e-01 -1.064652772493188e-01 -2.740202243045643e-01  9.461980931285068e-02  8.620665802113484e-02
13 3 1 -6.643335724668963e-02 -7.572804228839820e-02  1.562349624650390e+00 0 0 0 -1.300359104715813e-01 -1.629921646297893e-01  6.610587086386453e-02 -2.071567281325068e-02  7.938202030041711e-01 -6.067703387471320e-01 -3.535678462475889e-02 -1.736340178008015e-01  3.035970516448524e-01  9.830194795391317e-02
14 3 2  1.805262501586077e-01 -6.642884465368629e-02  1.019098265074677e+00 0 0 0  5.965588015213340e-02 -3.827029280137831e-01 -7.843064852153539e-02  5.017846344596082e-02  6.374656184127714e-01 -7.687342459173194e-01  1.293701286060465e-02 -2.777576479659421e-02  4.149545658370968e-02  2.278170548100679e-01
15 3 3  4.455944154364402e-01 -2.309221807755387e-01  5.966300912428859e-01 0 0 0 -1.802079880112726e-01  2.339420268386770e-01  4.817195903418779e-02 -6.238473383515866e-02 -3.332125595452394e-01  9.407629466227496e-01  6.527894554027659e-03 -2.566101023253692e-01  5.421604019910517e-02 -2.612434813884101e-01
16 3 4  5.021784780657911e-01 -5.588970230863958e-01  1.646990053126914e-01 0 0 0 -1.809853374656908e-01 -7.277470032158670e-02 -1.195716139039235e-02 -7.496385359549239e-02 -2.117450438328524e-03  9.948598461050127e-01 -6.804280759687713e-02  2.383334244483364e-02 -2.890306959351705e-01  1.015015973200092e-01
ITEM: TIMESTEP
4000
ITEM: NUMBER OF ATOMS
16
ITEM: BOX BOUNDS pp pp pp
-2.0000000000000000e+01 2.0000000000000000e+01
-2.0000000000000000e+01 2.0000000000000000e+01
-2.0000000000000000e+01 2.0000000000000000e+01
ITEM: ATOMS id mol type x y z ix iy iz vx vy vz c_quat[1] c_quat[2] c_quat[3] c_quat[4] angmomx angmomy angmomz
1 1 1 -6.119290152488523e-01 -6.569835983171490e-01  3.685477148201363e-01 0 0 0  1.687959935486440e-02  2.848261986039723e-03  1.386175325422411e-01  9.961928245190244e-01 -4.274233788811052e-02  3.864159859460567e-03 -7.588159985956799e-02  2.512474778495021e-01 -8.329441612395860e-02 -2.509754224668313e-01
2 1 2 -4.549370129861883e-01 -9.926619620628747e-01  7.175023554314065e-01 0 0 0 -7.451751733641686e-02  2.453647473514803e-01 -2.129161834266530e-01  9.368785872359781e-01  1.076150033133183e-01  6.608857094771321e-02  3.260518741407286e-01 -1.193783344996351e-01 -2.269735268124695e-02  5.089726847231153e-02
3 1 3 -1.075125802259219e-01 -1.244261062257855e+00  1.070474900429637e+00 0 0 0 -2.259132315700984e-01 -8.789048505804341e-02  1.090931552345618e-01  8.023527631180862e-01  1.466502192896705e-01  1.747440242910570e-01  5.515326669143272e-01  2.562499805808039e-01 -2.123111569783351e-01 -1.623141808534897e-01
4 1 4  2.845375763000186e-01 -1.278799475789672e+00  1.426019267389538e+00 0 0 0 -2.203717887139501e-01 -4.761334479010833e-01 -2.146131624763178e-02  5.538588483563870e-01  1.492923918701926e-01  1.161220289891203e-01  8.108439012599551e-01 -2.695657929431222e-01  2.435037183514841e-01  3.254550487809105e-01
5 1 1  6.232612229800827e-01 -1.028143625737806e+00  1.763337900690062e+00 0 0 0 -1.119985679002927e-01 -2.568160816949853e-01 -1.369562628287820e-01  2.471380529956450e-01  1.173094126440093e-01  8.223598775126734e-02  9.583311154216025e-01  8.441708585846430e-02 -6.389938968392690e-02  1.405016564532977e-01
6 1 2  7.895461910795184e-01 -6.695768041932507e-01  2.161256429342721e+00 0 0 0  1.071283747544417e-02  1.555527963769434e-01  2.244358886812603e-01 -4.457212046979618e-02  6.263012903978708e-02  1.987206039258487e-02  9.968429636753420e-01  6.977621137071439e-02 -3.362143084127259e-01  1.738821780949914e-01
7 1 3  7.143446268494035e-01 -4.022678785474082e-01  2.565882472188840e+00 0 0 0  9.003151104105987e-02  2.404603393469258e-02 -3.846982915303012e-02 -4.508754903202733e-01  1.113764676481417e-01 -7.421118721675134e-02  8.824960477954312e-01  2.430730963290652e-01  4.365597612585889e-01 -1.159724371064334e-01
8 1 4  4.851066030040333e-01 -3.043156457557287e-01  3.073173059930568e+00 0 0 0  3.891052526437508e-01 -3.984656942181684e-02  1.547512411602016e-01  7.634027117839394e-01 -1.159365777827354e-02  4.045312100732671e-02 -6.445505656975367e-01 -1.144317158048164e-02  1.127700637252940e-01 -1.765157349533144e-01
9 2 1  4.072373439212629e-01 -1.442723449190584e+00  3.057730867491183e+00 0 0 0  3.297895395489191e-02  1.121044546037116e-02 -7.854400871296974e-02 -2.313426931135857e-01  6.840715232981268e-01  6.796111014429311e-01 -1.290560349269247e-01 -7.215586508594175e-02 -6.819184304324652e-03  1.518821572861986e-01
10 2 2 -2.480957607324087e-02 -1.290403599771985e+00  2.718248785549594e+00 0 0 0  1.624306359736953e-01  1.054083270876790e-01 -5.292756889632252e-02 -2.308238005565944e-01  8.841708430962204e-01  3.869512502067951e-01 -1.234140319352985e-01 -3.006134372584686e-01 -4.123369125397618e-01 -1.919422518268250e-01
11 2 3 -3.318528247303836e-01 -9.152262979695572e-01  2.425330632470264e+00 0 0 0 -4.262323102450009e-01 -1.481790529987269e-01  2.638606818025269e-01 -6.803901360147759e-02  9.806533375139000e-01  1.471751176329750e-01 -1.096777507095532e-01 -3.506425247595639e-01 -3.682866727942289e-01  2.194369271658855e-02
12 2 4 -3.949094201396314e-01 -4.782388669754153e-01  2.007783899821075e+00 0 0 0 -1.546788479051837e-01  1.923791232513893e-01  6.747220061325331e-02 -1.800685918531343e-02  9.643058538576889e-01 -2.416362815767006e-01 -1.067795891725541e-01 -2.688944679491712e-01  9.533094376591164e-02  7.911580728764246e-02
13 3 1 -6.771497746558207e-02 -7.743984640209578e-02  1.562884750308253e+00 0 0 0 -1.263908979769092e-01 -1.793879177214536e-01  4.073569984359412e-02 -1.708435126822281e-02  7.944495979023480e-01 -6.059553979124234e-01 -3.709470414140059e-02 -1.415335152195956e-01  3.133102389201524e-01  1.091593106399059e-01
14 3 2  1.811297035914120e-01 -7.027184198521517e-02  1.018297703363705e+00 0 0 0  6.092752852044721e-02 -3.856909460189412e-01 -8.152134120179128e-02  5.056224677016095e-02  6.394804938057901e-01 -7.670343071447642e-01  1.290460795251157e-02  3.175216691350468e-03  3.294439942425492e-02  2.290562161493919e-01
15 3 3  4.438337362436025e-01 -2.285918943029953e-01  5.971537681624288e-01 0 0 0 -1.718712191452113e-01  2.319186483531468e-01  5.601763786344812e-02 -6.399988210663483e-02 -3.302214594758054e-01  9.417226043219702e-01  4.042190130588407e-03 -2.768563794465151e-01  5.834356835542592e-02 -2.551013077637499e-01
16 3 4  5.003835309171112e-01 -5.596011165715189e-01  1.646378605303974e-01 0 0 0 -1.780799004817809e-01 -6.787815941776400e-02 -3.311419325359410e-04 -7.166434934139172e-02 -3.042840311393237e-03  9.951131979820690e-01 -6.785783195928065e-02  2.437070331270753e-02 -2.746341990782474e-01  9.500958267400017e-02
ITEM: TIMESTEP
5000
ITEM: NUMBER OF ATOMS
16
ITEM: BOX BOUNDS pp pp pp
-2.0000000000000000e+01 2.0000000000000000e+01
-2.0000000000000000e+01 2.0000000000000000e+01
-2.0000000000000000e+01 2.0000000000000000e+01
ITEM: ATOMS id mol type x y z ix iy iz vx vy vz c_quat[1] c_quat[2] c_quat[3] c_quat[4] angmomx angmomy angmomz
1 1 1 -6.118075215717653e-01 -6.569754508760905e-01  3.697643099974643e-01 0 0 0  7.389424273654674e-03 -1.129187679849999e-03  1.042564934054174e-01  9.960959515776151e-01 -3.970516947981284e-02  3.585412103396773e-03 -7.876229800681260e-02  2.690939694391458e-01 -2.631406097059504e-02 -2.498210078850008e-01
2 1 2 -4.557185315316212e-01 -9.902602905474808e-01  7.154198550351407e-01 0 0 0 -8.164110405665148e-02  2.347015546588224e-01 -2.023839372578312e-01  9.368578969623932e-01  1.061743844057958e-01  6.641651673634431e-02  3.265166570021552e-01 -1.273523047740366e-01 -1.530874787579842e-02  4.840970514290780e-02
3 1 3 -1.097944039634372e-01 -1.245079156102697e+00  1.071760828883484e+00 0 0 0 -2.304698541302659e-01 -7.573930948062525e-02  1.476309523662842e-01  8.033441316811321e-01  1.481831875648089e-01  1.705177529870054e-01  5.510024001153563e-01  3.212221920257930e-01 -2.471785118251568e-01 -1.609974819558790e-01
4 1 4  2.823663542068248e-01 -1.283442794606917e+00  1.425758957850820e+00 0 0 0 -2.137559521999429e-01 -4.524165264701718e-01 -3.025521347651649e-02  5.510266925327982e-01  1.493266762352508e-01  1.207696515850682e-01  8.120873223594361e-01 -2.835042517293407e-01  2.344505732925315e-01  3.136658285755025e-01
5 1 1  6.221934381693998e-01 -1.030724716259076e+00  1.761998264377648e+00 0 0 0 -1.017242734195901e-01 -2.590670372127733e-01 -1.305494030357048e-01  2.455242419748035e-01  1.168007868172089e-01  8.130954444602739e-02  9.588869489066782e-01  8.922805660544332e-02 -4.859502720258766e-02  1.409020941958842e-01
6 1 2  7.897025851962234e-01 -6.680864332810449e-01  2.163621670952173e+00 0 0 0  2.031569782875450e-02  1.423167745531241e-01  2.486277294486114e-01 -4.663730489816730e-02  5.911907129903275e-02  1.940784591351951e-02  9.969720320638751e-01  6.074269261293491e-02 -2.631457723742764e-01  1.902586324455989e-01
7 1 3  7.153021313308424e-01 -4.019441865408984e-01  2.565637822903307e+00 0 0 0  1.015078424603707e-01  4.076632669047379e-02 -1.043232568556876e-02 -4.496589049838975e-01  1.145241335015768e-01 -7.893522484696987e-02  8.823039851960058e-01  2.144792488670237e-01  4.369147823667163e-01 -1.065457122199926e-01
8 1 4  4.890052293622414e-01 -3.046989345110136e-01  3.074705580765317e+00 0 0 0  3.905282112518333e-01 -3.675204470182518e-02  1.516820652506479e-01  7.619850372138639e-01 -1.252826989538293e-02  4.138055093741112e-02 -6.461497469779983e-01 -2.261658405438519e-02  1.221506214391722e-01 -1.904569338398253e-01
9 2 1  4.075510423593569e-01 -1.442649789312531e+00  3.056836762719843e+00 0 0 0  2.983296441790096e-02  3.502109605177955e-03 -1.001690815122236e-01 -2.303950120377805e-01  6.831377657519009e-01  6.806830710054345e-01 -1.300441781788894e-01 -9.567791416721633e-02 -9.931086046794014e-03  1.470570761657443e-01
10 2 2 -2.324226279543883e-02 -1.289362507936254e+00  2.717704846319925e+00 0 0 0  1.508399703506531e-01  1.026968902268330e-01 -5.577259787873201e-02 -2.260460610418186e-01  8.863465971290871e-01  3.857873876763682e-01 -1.202538130580890e-01 -3.342678343583894e-01 -3.955287025371983e-01 -1.579110319929868e-01