LAMMPS data file via write_data, version 17 Apr 2024, timestep = 250000, units = lj

10 atoms
1 atom types
9 bonds
1 bond types

-10 10 xlo xhi
-10 10 ylo yhi
-10 10 zlo zhi

Masses

1 1

Atoms # bond/kk

7 1 1 5.569626214290185 -3.15578363148596 -3.023479331245457 0 0 0
6 1 1 4.746196794327521 -2.8306072070551305 -2.52002146097363 0 0 0
3 1 1 5.02162852824074 -1.9462415423255721 -2.255435450717712 0 0 0
1 1 1 6.251668185004187 -1.9360848376132882 -2.417312328999784 0 0 0
10 1 1 4.884271584170682 -3.9650736825285207 -1.6925454535906528 0 0 0
8 1 1 5.642237650290805 -3.4395870354485787 -1.976486108444029 0 0 0
5 1 1 5.5397344663812325 -2.5306745623839824 -2.0325629647088372 0 0 0
2 1 1 5.622696188502677 -1.4242306673963987 -1.5041223954944418 0 0 0
9 1 1 5.823914971521415 -4.025496203546092 -1.2303821336037997 0 0 0
4 1 1 5.217189077672262 -1.8160226247137654 -1.2460202102229165 0 0 0

Velocities

7 -0.13835239260244186 0.004304719867921124 -0.25700717291981384
6 -0.2480325163255995 -0.12162315788867399 -0.08672157705244439
3 -0.14700724158002984 0.044080186599212964 -0.16230512055091645
1 0.2924998240590695 -0.02362296014305565 0.09963685766164655
10 0.168612915642591 -0.08841161215514873 -0.038805684996673154
8 -0.07336137233911064 0.03642215408671535 0.15701809796459715
5 0.20595997886277853 0.07888521918485915 0.023761827765184564
2 -0.06363378407245522 -0.34447618888581455 0.010996462151018804
9 -0.05599209552264539 0.28507267356461674 0.037391414133236725
4 0.059306683877863475 0.12936896576938062 0.21603489584415486

Bonds

1 1 7 8
2 1 6 7
3 1 3 4
4 1 1 2
5 1 8 9
6 1 5 6
7 1 2 3
8 1 9 10
9 1 4 5
