ITEM: TIMESTEP
0
ITEM: NUMBER OF ATOMS
10
ITEM: BOX BOUNDS pp pp pp
-1.0000000000000000e+01 1.0000000000000000e+01
-1.0000000000000000e+01 1.0000000000000000e+01
-1.0000000000000000e+01 1.0000000000000000e+01
ITEM: ATOMS id type xs ys zs
1 1 0.683604 0.319026 0.177474
2 1 0.692961 0.327642 0.229825
3 1 0.706299 0.338067 0.277719
4 1 0.733743 0.348302 0.320214
5 1 0.763298 0.354137 0.366622
6 1 0.774956 0.367163 0.413904
7 1 0.815159 0.38506 0.469103
8 1 0.845834 0.391398 0.525133
9 1 0.848562 0.400303 0.589669
10 1 0.851541 0.415412 0.63542
ITEM: TIMESTEP
1000
ITEM: NUMBER OF ATOMS
10
ITEM: BOX BOUNDS pp pp pp
-1.0000000000000000e+01 1.0000000000000000e+01
-1.0000000000000000e+01 1.0000000000000000e+01
-1.0000000000000000e+01 1.0000000000000000e+01
ITEM: ATOMS id type xs ys zs
1 1 0.683444 0.318878 0.176562
2 1 0.692174 0.327045 0.227313
3 1 0.705802 0.338276 0.278918
4 1 0.735476 0.348896 0.322893
5 1 0.764207 0.355022 0.369488
6 1 0.786098 0.371657 0.427561
7 1 0.812715 0.381974 0.470648
8 1 0.836717 0.390994 0.520952
9 1 0.847722 0.397992 0.57446
10 1 0.851603 0.415775 0.636287
ITEM: TIMESTEP
2000
ITEM: NUMBER OF ATOMS
10
ITEM: BOX BOUNDS pp pp pp
-1.0000000000000000e+01 1.0000000000000000e+01
-1.0000000000000000e+01 1.0000000000000000e+01
-1.0000000000000000e+01 1.0000000000000000e+01
ITEM: ATOMS id type xs ys zs
1 1 0.682831 0.318309 0.173064
2 1 0.692054 0.327063 0.22827
3 1 0.706731 0.338851 0.2816
4 1 0.740594 0.350346 0.332089
5 1 0.767319 0.360294 0.383824
6 1 0.793319 0.37179 0.425718
7 1 0.811465 0.377635 0.474064
8 1 0.825431 0.392096 0.52213
9 1 0.845916 0.400266 0.568998
10 1 0.850297 0.40986 0.615324
ITEM: TIMESTEP
3000
ITEM: NUMBER OF ATOMS
10
ITEM: BOX BOUNDS pp pp pp
-1.0000000000000000e+01 1.0000000000000000e+01
-1.0000000000000000e+01 1.0000000000000000e+01
-1.0000000000000000e+01 1.0000000000000000e+01
ITEM: ATOMS id type xs ys zs
1 1 0.683586 0.31903 0.177634
2 1 0.694448 0.328602 0.233903
3 1 0.715925 0.340759 0.289918
4 1 0.740723 0.34985 0.335942
5 1 0.76205 0.362717 0.382868
6 1 0.80041 0.372358 0.420421
7 1 0.808834 0.372487 0.477555
8 1 0.811233 0.392698 0.522225
9 1 0.848323 0.401954 0.556976
10 1 0.850426 0.406057 0.607638
ITEM: TIMESTEP
4000
ITEM: NUMBER OF ATOMS
10
ITEM: BOX BOUNDS pp pp pp
-1.0000000000000000e+01 1.0000000000000000e+01
-1.0000000000000000e+01 1.0000000000000000e+01
-1.0000000000000000e+01 1.0000000000000000e+01
ITEM: ATOMS id type xs ys zs
1 1 0.686942 0.322006 0.19536
2 1 0.700117 0.331586 0.243223
3 1 0.721647 0.339729 0.284682
4 1 0.738331 0.348704 0.336369
5 1 0.759329 0.365674 0.384655
6 1 0.80519 0.371802 0.418987
7 1 0.807557 0.364273 0.468947
8 1 0.794615 0.395884 0.521414
9 1 0.85062 0.403303 0.544836
10 1 0.85161 0.403551 0.606609
ITEM: TIMESTEP
5000
ITEM: NUMBER OF ATOMS
10
ITEM: BOX BOUNDS pp pp pp
-1.0000000000000000e+01 1.0000000000000000e+01
-1.0000000000000000e+01 1.0000000000000000e+01
-1.0000000000000000e+01 1.0000000000000000e+01
ITEM: ATOMS id type xs ys zs
1 1 0.687121 0.322732 0.20325
2 1 0.70244 0.334464 0.250217
3 1 0.733825 0.341043 0.291601
4 1 0.738166 0.349224 0.341711
5 1 0.760768 0.3678 0.38622
6 1 0.803947 0.371021 0.413312
7 1 0.802374 0.364843 0.474757
8 1 0.798318 0.39228 0.513888
9 1 0.836347 0.402224 0.542915
10 1 0.852653 0.400878 0.587209
ITEM: TIMESTEP
6000
ITEM: NUMBER OF ATOMS
10
ITEM: BOX BOUNDS pp pp pp
-1.0000000000000000e+01 1.0000000000000000e+01
-1.0000000000000000e+01 1.0000000000000000e+01
-1.0000000000000000e+01 1.0000000000000000e+01
ITEM: ATOMS id type xs ys zs
1 1 0.685337 0.322176 0.204508
2 1 0.703684 0.337818 0.259211
3 1 0.748693 0.34219 0.297135
4 1 0.736637 0.349255 0.350085
5 1 0.76126 0.371266 0.389174
6 1 0.805102 0.36934 0.421232
7 1 0.79737 0.360861 0.461228
8 1 0.791656 0.391188 0.505197
9 1 0.826428 0.404874 0.536918
10 1 0.859792 0.397543 0.580393
ITEM: TIMESTEP
7000
ITEM: NUMBER OF ATOMS
10
ITEM: BOX BOUNDS pp pp pp
-1.0000000000000000e+01 1.0000000000000000e+01
-1.0000000000000000e+01 1.0000000000000000e+01
-1.0000000000000000e+01 1.0000000000000000e+01
ITEM: ATOMS id type xs ys zs
1 1 0.688063 0.325466 0.219602
2 1 0.711521 0.338393 0.263456
3 1 0.751091 0.34255 0.296794
4 1 0.734524 0.347422 0.351681
5 1 0.761292 0.37644 0.394485
6 1 0.813509 0.372866 0.408459
7 1 0.787766 0.347735 0.463487
8 1 0.778458 0.39153 0.496644
9 1 0.824267 0.409093 0.536824
10 1 0.865466 0.395015 0.573649
ITEM: TIMESTEP
8000
ITEM: NUMBER OF ATOMS
10
ITEM: BOX BOUNDS pp pp pp
-1.0000000000000000e+01 1.0000000000000000e+01
-1.0000000000000000e+01 1.0000000000000000e+01
-1.0000000000000000e+01 1.0000000000000000e+01
ITEM: ATOMS id type xs ys zs
1 1 0.688436 0.327446 0.230278
2 1 0.719275 0.339934 0.269087
3 1 0.753367 0.34399 0.307607
4 1 0.73986 0.349996 0.352854
5 1 0.758986 0.376194 0.392354
6 1 0.808695 0.366866 0.415151
7 1 0.787402 0.35202 0.452519
8 1 0.782703 0.390402 0.495689
9 1 0.815244 0.404325 0.530905
10 1 0.861989 0.395337 0.558637
ITEM: TIMESTEP
9000
ITEM: NUMBER OF ATOMS
10
ITEM: BOX BOUNDS pp pp pp
-1.0000000000000000e+01 1.0000000000000000e+01
-1.0000000000000000e+01 1.0000000000000000e+01
-1.0000000000000000e+01 1.0000000000000000e+01
ITEM: ATOMS id type xs ys zs
1 1 0.684765 0.32779 0.235984
2 1 0.725332 0.342396 0.273883
3 1 0.765638 0.344379 0.311281
4 1 0.738073 0.350608 0.361517
5 1 0.762635 0.379827 0.396345
6 1 0.807641 0.363156 0.408523
7 1 0.778944 0.357743 0.456587
8 1 0.785635 0.383942 0.488606
9 1 0.809528 0.400362 0.53023
10 1 0.857768 0.396307 0.542124
ITEM: TIMESTEP
10000
ITEM: NUMBER OF ATOMS
10
ITEM: BOX BOUNDS pp pp pp
-1.0000000000000000e+01 1.0000000000000000e+01
-1.0000000000000000e+01 1.0000000000000000e+01
-1.0000000000000000e+01 1.0000000000000000e+01
ITEM: ATOMS id type xs ys zs
1 1 0.687299 0.330236 0.24688
2 1 0.729081 0.343022 0.277375
3 1 0.769613 0.34504 0.317216
4 1 0.738885 0.348896 0.361046
5 1 0.761227 0.387205 0.400329
6 1 0.810927 0.357933 0.405067
7 1 0.770261 0.347834 0.441348
8 1 0.784785 0.388315 0.488583
9 1 0.803113 0.401529 0.538707
10 1 0.860768 0.3965 0.528532
ITEM: TIMESTEP
11000
ITEM: NUMBER OF ATOMS
10
ITEM: BOX BOUNDS pp pp pp
-1.0000000000000000e+01 1.0000000000000000e+01
-1.0000000000000000e+01 1.0000000000000000e+01
-1.0000000000000000e+01 1.0000000000000000e+01
ITEM: ATOMS id type xs ys zs
1 1 0.690509 0.33311 0.258927
2 1 0.736444 0.343432 0.283916
3 1 0.768229 0.345449 0.320383
4 1 0.745 0.354142 0.366197
5 1 0.762463 0.383846 0.397818
6 1 0.805274 0.356039 0.404686
7 1 0.768458 0.352049 0.438587
8 1 0.782432 0.381567 0.482206
9 1 0.804921 0.399178 0.535299
10 1 0.852229 0.397698 0.517062
ITEM: TIMESTEP
12000
ITEM: NUMBER OF ATOMS
10
ITEM: BOX BOUNDS pp pp pp
-1.0000000000000000e+01 1.0000000000000000e+01
-1.0000000000000000e+01 1.0000000000000000e+01
-1.0000000000000000e+01 1.0000000000000000e+01
ITEM: ATOMS id type xs ys zs
1 1 0.690462 0.335155 0.269003
2 1 0.739617 0.344242 0.283852
3 1 0.777499 0.345361 0.326428
4 1 0.742605 0.351261 0.367525
5 1 0.766384 0.391189 0.40427
6 1 0.806393 0.354168 0.401568
7 1 0.763753 0.358387 0.443919
8 1 0.783763 0.37357 0.48418
9 1 0.796849 0.393963 0.520319
10 1 0.848633 0.399214 0.504017
ITEM: TIMESTEP
13000
ITEM: NUMBER OF ATOMS
10
ITEM: BOX BOUNDS pp pp pp
-1.0000000000000000e+01 1.0000000000000000e+01
-1.0000000000000000e+01 1.0000000000000000e+01
-1.0000000000000000e+01 1.0000000000000000e+01
ITEM: ATOMS id type xs ys zs
1 1 0.689647 0.337017 0.278675
2 1 0.747233 0.345244 0.288382
3 1 0.781153 0.345584 0.330332
4 1 0.746558 0.355329 0.373217
6 1 0.800344 0.351495 0.406762
5 1 0.765586 0.392063 0.404243
7 1 0.759555 0.36068 0.425937
8 1 0.783595 0.359633 0.48023
9 1 0.798581 0.398831 0.525014
10 1 0.843707 0.400633 0.492292
ITEM: TIMESTEP
14000
ITEM: NUMBER OF ATOMS
10
ITEM: BOX BOUNDS pp pp pp
-1.0000000000000000e+01 1.0000000000000000e+01
-1.0000000000000000e+01 1.0000000000000000e+01
-1.0000000000000000e+01 1.0000000000000000e+01
ITEM: ATOMS id type xs ys zs
1 1 0.69897 0.340344 0.290085
2 1 0.74691 0.344793 0.293556
3 1 0.779881 0.346302 0.334767
4 1 0.752786 0.356221 0.37399
6 1 0.803298 0.349189 0.404485
5 1 0.767599 0.393125 0.406334
7 1 0.751884 0.362906 0.429555
8 1 0.780026 0.359277 0.475294
9 1 0.799043 0.39223 0.515052
10 1 0.835562 0.402123 0.481963
ITEM: TIMESTEP
15000
ITEM: NUMBER OF ATOMS
10
ITEM: BOX BOUNDS pp pp pp
-1.0000000000000000e+01 1.0000000000000000e+01
-1.0000000000000000e+01 1.0000000000000000e+01
-1.0000000000000000e+01 1.0000000000000000e+01
ITEM: ATOMS id type xs ys zs
1 1 0.697472 0.342816 0.301111
2 1 0.754165 0.345092 0.295087
3 1 0.787897 0.344961 0.334557
4 1 0.751309 0.354229 0.379226
7 1 0.752351 0.362375 0.430762
6 1 0.793939 0.351926 0.404577
5 1 0.775279 0.396514 0.413337
8 1 0.777535 0.361702 0.471867
9 1 0.7939 0.382655 0.506923
10 1 0.83211 0.404241 0.467633
ITEM: TIMESTEP
16000
ITEM: NUMBER OF ATOMS
10
ITEM: BOX BOUNDS pp pp pp
-1.0000000000000000e+01 1.0000000000000000e+01
-1.0000000000000000e+01 1.0000000000000000e+01
-1.0000000000000000e+01 1.0000000000000000e+01
ITEM: ATOMS id type xs ys zs
1 1 0.701986 0.345325 0.310625
2 1 0.754201 0.345314 0.296803
3 1 0.790697 0.345458 0.343378
4 1 0.761611 0.360204 0.384664
7 1 0.740938 0.362494 0.419401
6 1 0.792217 0.345632 0.400703
5 1 0.773164 0.398595 0.413584
8 1 0.774869 0.352562 0.465714
9 1 0.805014 0.388669 0.509138
10 1 0.82126 0.402256 0.461072
ITEM: TIMESTEP
17000
ITEM: NUMBER OF ATOMS
10
ITEM: BOX BOUNDS pp pp pp
-1.0000000000000000e+01 1.0000000000000000e+01
-1.0000000000000000e+01 1.0000000000000000e+01
-1.0000000000000000e+01 1.0000000000000000e+01
ITEM: ATOMS id type xs ys zs
2 1 0.75843 0.345335 0.306646
1 1 0.708565 0.348044 0.319945
3 1 0.787487 0.344664 0.341915
4 1 0.770139 0.359302 0.386046
6 1 0.784149 0.348847 0.400095
7 1 0.740822 0.359571 0.41797
5 1 0.775699 0.400541 0.418233
8 1 0.776391 0.358549 0.464058
10 1 0.810402 0.400774 0.451863
9 1 0.803873 0.380882 0.49831
ITEM: TIMESTEP
18000
ITEM: NUMBER OF ATOMS
10
ITEM: BOX BOUNDS pp pp pp
-1.0000000000000000e+01 1.0000000000000000e+01
-1.0000000000000000e+01 1.0000000000000000e+01
-1.0000000000000000e+01 1.0000000000000000e+01
ITEM: ATOMS id type xs ys zs
2 1 0.757183 0.3456 0.30187
3 1 0.799722 0.34005 0.344129
1 1 0.709417 0.350957 0.330649
4 1 0.773535 0.357293 0.393275
7 1 0.734707 0.359137 0.427305
6 1 0.785962 0.355195 0.39789
5 1 0.780051 0.400925 0.424015
8 1 0.769984 0.366658 0.452447
10 1 0.800366 0.399985 0.439462
9 1 0.805031 0.370711 0.49404
ITEM: TIMESTEP
19000
ITEM: NUMBER OF ATOMS
10
ITEM: BOX BOUNDS pp pp pp
-1.0000000000000000e+01 1.0000000000000000e+01
-1.0000000000000000e+01 1.0000000000000000e+01
-1.0000000000000000e+01 1.0000000000000000e+01
ITEM: ATOMS id type xs ys zs
2 1 0.760641 0.344979 0.309763
3 1 0.797524 0.339938 0.345447
1 1 0.715504 0.353235 0.338109
4 1 0.781706 0.354558 0.39363
7 1 0.724699 0.354346 0.419143
6 1 0.77493 0.359993 0.400319
5 1 0.784615 0.401023 0.430224
8 1 0.774911 0.376227 0.445387
10 1 0.791346 0.390965 0.442358
9 1 0.810082 0.371246 0.480702
ITEM: TIMESTEP
20000
ITEM: NUMBER OF ATOMS
10
ITEM: BOX BOUNDS pp pp pp
-1.0000000000000000e+01 1.0000000000000000e+01
-1.0000000000000000e+01 1.0000000000000000e+01
-1.0000000000000000e+01 1.0000000000000000e+01
ITEM: ATOMS id type xs ys zs
2 1 0.760846 0.344614 0.314972
3 1 0.797854 0.339862 0.35073
1 1 0.721572 0.355679 0.345419
7 1 0.722785 0.354463 0.416182
6 1 0.766565 0.360007 0.39897
4 1 0.791105 0.36077 0.400346
5 1 0.78834 0.397194 0.432522
8 1 0.770209 0.379817 0.433802
10 1 0.777905 0.385853 0.437574
9 1 0.818778 0.368251 0.474565
ITEM: TIMESTEP
21000
ITEM: NUMBER OF ATOMS
10
ITEM: BOX BOUNDS pp pp pp
-1.0000000000000000e+01 1.0000000000000000e+01
-1.0000000000000000e+01 1.0000000000000000e+01
-1.0000000000000000e+01 1.0000000000000000e+01
ITEM: ATOMS id type xs ys zs
2 1 0.761717 0.343829 0.31496
3 1 0.80198 0.338056 0.356516
1 1 0.723434 0.359102 0.355327
7 1 0.719996 0.359093 0.422912
6 1 0.773 0.364674 0.395351
8 1 0.768975 0.373276 0.431129
10 1 0.765676 0.380169 0.434149
4 1 0.801657 0.360767 0.402126
9 1 0.810361 0.369753 0.453224
5 1 0.789163 0.397791 0.439388
ITEM: TIMESTEP
22000
ITEM: NUMBER OF ATOMS
10
ITEM: BOX BOUNDS pp pp pp
-1.0000000000000000e+01 1.0000000000000000e+01
-1.0000000000000000e+01 1.0000000000000000e+01
-1.0000000000000000e+01 1.0000000000000000e+01
ITEM: ATOMS id type xs ys zs
2 1 0.762612 0.34482 0.326637
3 1 0.802172 0.334829 0.353069
1 1 0.730193 0.360611 0.360035
7 1 0.718571 0.363284 0.422721
6 1 0.769232 0.372216 0.403666
8 1 0.767938 0.369335 0.42364
10 1 0.752254 0.375519 0.428666
4 1 0.810949 0.360215 0.404756
9 1 0.813872 0.369408 0.439438
5 1 0.788166 0.396273 0.442454
ITEM: TIMESTEP
23000
ITEM: NUMBER OF ATOMS
10
ITEM: BOX BOUNDS pp pp pp
-1.0000000000000000e+01 1.0000000000000000e+01
-1.0000000000000000e+01 1.0000000000000000e+01
-1.0000000000000000e+01 1.0000000000000000e+01
ITEM: ATOMS id type xs ys zs
2 1 0.76253 0.344507 0.326962
3 1 0.810544 0.33371 0.362953
1 1 0.73118 0.365072 0.371055
7 1 0.70885 0.36561 0.419453
6 1 0.756713 0.375116 0.406848
8 1 0.760966 0.367704 0.410918
10 1 0.761157 0.368433 0.427517
4 1 0.814835 0.362569 0.406141
9 1 0.813901 0.371827 0.427879
5 1 0.795282 0.391962 0.445356
ITEM: TIMESTEP
24000
ITEM: NUMBER OF ATOMS
10
ITEM: BOX BOUNDS pp pp pp
-1.0000000000000000e+01 1.0000000000000000e+01
-1.0000000000000000e+01 1.0000000000000000e+01
-1.0000000000000000e+01 1.0000000000000000e+01
ITEM: ATOMS id type xs ys zs
2 1 0.768624 0.34497 0.341533
3 1 0.808203 0.334173 0.363422
1 1 0.736787 0.366391 0.37597
7 1 0.696693 0.367256 0.417508
6 1 0.754551 0.379962 0.412837
8 1 0.756244 0.366828 0.399097
10 1 0.767938 0.360605 0.426926
4 1 0.819779 0.364278 0.406188
9 1 0.811595 0.37397 0.414666
5 1 0.795544 0.388078 0.446936
ITEM: TIMESTEP
25000
ITEM: NUMBER OF ATOMS
10
ITEM: BOX BOUNDS pp pp pp
-1.0000000000000000e+01 1.0000000000000000e+01
-1.0000000000000000e+01 1.0000000000000000e+01
-1.0000000000000000e+01 1.0000000000000000e+01
ITEM: ATOMS id type xs ys zs
2 1 0.76589 0.346071 0.34545
3 1 0.817121 0.329585 0.369061
1 1 0.739291 0.370264 0.384578
7 1 0.707126 0.37008 0.410132
6 1 0.748161 0.384574 0.421432
8 1 0.752128 0.367962 0.397459
10 1 0.762383 0.349404 0.429226
4 1 0.82548 0.366743 0.40684
9 1 0.804851 0.37766 0.393389
5 1 0.793527 0.384166 0.447514
ITEM: TIMESTEP
26000
ITEM: NUMBER OF ATOMS
10
ITEM: BOX BOUNDS pp pp pp
-1.0000000000000000e+01 1.0000000000000000e+01
-1.0000000000000000e+01 1.0000000000000000e+01
-1.0000000000000000e+01 1.0000000000000000e+01
ITEM: ATOMS id type xs ys zs
2 1 0.771765 0.344747 0.353109
3 1 0.817877 0.328937 0.37149
9 1 0.793346 0.373749 0.38232
10 1 0.768789 0.347082 0.41999
7 1 0.695961 0.369086 0.401588
1 1 0.741357 0.373876 0.393178
8 1 0.750284 0.367321 0.39488
4 1 0.830408 0.369149 0.408439
6 1 0.748491 0.393374 0.430032
5 1 0.79768 0.37919 0.450058
ITEM: TIMESTEP
27000
ITEM: NUMBER OF ATOMS
10
ITEM: BOX BOUNDS pp pp pp
-1.0000000000000000e+01 1.0000000000000000e+01
-1.0000000000000000e+01 1.0000000000000000e+01
-1.0000000000000000e+01 1.0000000000000000e+01
ITEM: ATOMS id type xs ys zs
2 1 0.77208 0.347602 0.36637
3 1 0.820523 0.330853 0.377669
9 1 0.795975 0.371639 0.368305
10 1 0.776829 0.345565 0.409988
7 1 0.694609 0.377678 0.404965
1 1 0.747434 0.373819 0.395773
8 1 0.74116 0.363077 0.394526
4 1 0.834034 0.368628 0.408195
6 1 0.738528 0.391061 0.431139
5 1 0.794787 0.376589 0.448151
ITEM: TIMESTEP
28000
ITEM: NUMBER OF ATOMS
10
ITEM: BOX BOUNDS pp pp pp
-1.0000000000000000e+01 1.0000000000000000e+01
-1.0000000000000000e+01 1.0000000000000000e+01
-1.0000000000000000e+01 1.0000000000000000e+01
ITEM: ATOMS id type xs ys zs
2 1 0.775391 0.344212 0.369061
3 1 0.826108 0.327102 0.381687
8 1 0.747324 0.361832 0.38925
9 1 0.787517 0.370005 0.356408
10 1 0.783087 0.341675 0.403688
7 1 0.694902 0.387202 0.4099
1 1 0.745705 0.381688 0.40774
6 1 0.737952 0.382695 0.435016
4 1 0.833848 0.373508 0.417992
5 1 0.784125 0.376589 0.43434
ITEM: TIMESTEP
29000
ITEM: NUMBER OF ATOMS
10
ITEM: BOX BOUNDS pp pp pp
-1.0000000000000000e+01 1.0000000000000000e+01
-1.0000000000000000e+01 1.0000000000000000e+01
-1.0000000000000000e+01 1.0000000000000000e+01
ITEM: ATOMS id type xs ys zs
2 1 0.776068 0.348802 0.382515
3 1 0.828676 0.333153 0.391294
8 1 0.739454 0.366899 0.387819
9 1 0.777599 0.36644 0.349544
10 1 0.789204 0.339825 0.39392
7 1 0.700947 0.392257 0.401642
1 1 0.75142 0.380205 0.410033
6 1 0.73186 0.374551 0.446563
4 1 0.836863 0.369572 0.420016
5 1 0.783867 0.374806 0.421736
ITEM: TIMESTEP
30000
ITEM: NUMBER OF ATOMS
10
ITEM: BOX BOUNDS pp pp pp
-1.0000000000000000e+01 1.0000000000000000e+01
-1.0000000000000000e+01 1.0000000000000000e+01
-1.0000000000000000e+01 1.0000000000000000e+01
ITEM: ATOMS id type xs ys zs
9 1 0.767806 0.362089 0.341036
2 1 0.783082 0.347223 0.392102
10 1 0.79596 0.338182 0.383727
8 1 0.740244 0.36662 0.38482
3 1 0.827786 0.329677 0.392235
1 1 0.752225 0.384794 0.417298
5 1 0.778842 0.372815 0.415868
4 1 0.838605 0.375064 0.428087
7 1 0.701484 0.398091 0.40563
6 1 0.729925 0.371953 0.444279
ITEM: TIMESTEP
31000
ITEM: NUMBER OF ATOMS
10
ITEM: BOX BOUNDS pp pp pp
-1.0000000000000000e+01 1.0000000000000000e+01
-1.0000000000000000e+01 1.0000000000000000e+01
-1.0000000000000000e+01 1.0000000000000000e+01
ITEM: ATOMS id type xs ys zs
9 1 0.764146 0.355711 0.334591
2 1 0.780266 0.349062 0.4006
10 1 0.799386 0.338825 0.369072
8 1 0.737677 0.36631 0.384114
3 1 0.838341 0.330439 0.400002
1 1 0.752535 0.389892 0.425082
5 1 0.78062 0.370596 0.417511
4 1 0.824271 0.372348 0.42751
7 1 0.703405 0.404451 0.414241
6 1 0.73531 0.368875 0.432358
ITEM: TIMESTEP
32000
ITEM: NUMBER OF ATOMS
10
ITEM: BOX BOUNDS pp pp pp
-1.0000000000000000e+01 1.0000000000000000e+01
-1.0000000000000000e+01 1.0000000000000000e+01
-1.0000000000000000e+01 1.0000000000000000e+01
ITEM: ATOMS id type xs ys zs
9 1 0.753428 0.35124 0.336585
10 1 0.80495 0.339133 0.354978
8 1 0.731942 0.373958 0.381837
3 1 0.836087 0.331875 0.405347
6 1 0.729455 0.359633 0.431858
1 1 0.756164 0.390404 0.430278
5 1 0.778348 0.369075 0.408148
2 1 0.789 0.350589 0.411523
4 1 0.828511 0.374744 0.434524
7 1 0.708072 0.405858 0.410005
ITEM: TIMESTEP
33000
ITEM: NUMBER OF ATOMS
10
ITEM: BOX BOUNDS pp pp pp
-1.0000000000000000e+01 1.0000000000000000e+01
-1.0000000000000000e+01 1.0000000000000000e+01
-1.0000000000000000e+01 1.0000000000000000e+01
ITEM: ATOMS id type xs ys zs
9 1 0.748976 0.346028 0.339654
10 1 0.804064 0.340319 0.3403
8 1 0.729547 0.375839 0.37217
3 1 0.837926 0.330194 0.409002
6 1 0.723528 0.356376 0.426923
1 1 0.76011 0.389998 0.43459
5 1 0.778345 0.367993 0.406579
2 1 0.794338 0.354328 0.423833
4 1 0.825613 0.377442 0.437302
7 1 0.713513 0.407994 0.414729
ITEM: TIMESTEP
34000
ITEM: NUMBER OF ATOMS
10
ITEM: BOX BOUNDS pp pp pp
-1.0000000000000000e+01 1.0000000000000000e+01
-1.0000000000000000e+01 1.0000000000000000e+01
-1.0000000000000000e+01 1.0000000000000000e+01
ITEM: ATOMS id type xs ys zs
9 1 0.751041 0.334394 0.338685
10 1 0.799977 0.342933 0.323872
8 1 0.725125 0.382519 0.369801
3 1 0.844796 0.331227 0.414654
6 1 0.729412 0.35677 0.415511
5 1 0.772983 0.366125 0.417751
2 1 0.798907 0.355804 0.436213
7 1 0.718085 0.40893 0.417408
1 1 0.759349 0.394768 0.440847
4 1 0.816283 0.373039 0.43034
ITEM: TIMESTEP
35000
ITEM: NUMBER OF ATOMS
10
ITEM: BOX BOUNDS pp pp pp
-1.0000000000000000e+01 1.0000000000000000e+01
-1.0000000000000000e+01 1.0000000000000000e+01
-1.0000000000000000e+01 1.0000000000000000e+01
ITEM: ATOMS id type xs ys zs
9 1 0.745464 0.338334 0.34454
10 1 0.795878 0.34484 0.309821
8 1 0.726697 0.378718 0.364898
3 1 0.847837 0.332049 0.421968
6 1 0.713426 0.352338 0.40366
5 1 0.768412 0.365636 0.422964
4 1 0.825652 0.375388 0.430855
7 1 0.724861 0.405625 0.413836
2 1 0.805109 0.357989 0.445937
1 1 0.762622 0.395592 0.446603
ITEM: TIMESTEP
36000
ITEM: NUMBER OF ATOMS
10
ITEM: BOX BOUNDS pp pp pp
-1.0000000000000000e+01 1.0000000000000000e+01
-1.0000000000000000e+01 1.0000000000000000e+01
-1.0000000000000000e+01 1.0000000000000000e+01
ITEM: ATOMS id type xs ys zs
10 1 0.777814 0.344578 0.302383
9 1 0.75636 0.340013 0.34161
8 1 0.725637 0.380156 0.363499
3 1 0.848154 0.329171 0.43109
6 1 0.712328 0.353202 0.398248
5 1 0.763257 0.364664 0.423592
4 1 0.818545 0.381787 0.431455
7 1 0.730545 0.39962 0.408321
2 1 0.812012 0.361667 0.45263
1 1 0.771304 0.391652 0.452254
ITEM: TIMESTEP
37000
ITEM: NUMBER OF ATOMS
10
ITEM: BOX BOUNDS pp pp pp
-1.0000000000000000e+01 1.0000000000000000e+01
-1.0000000000000000e+01 1.0000000000000000e+01
-1.0000000000000000e+01 1.0000000000000000e+01
ITEM: ATOMS id type xs ys zs
10 1 0.768583 0.345643 0.284106
9 1 0.758919 0.339259 0.348905
8 1 0.723543 0.379808 0.35625
3 1 0.844135 0.33518 0.436609
6 1 0.720634 0.351528 0.396912
5 1 0.760096 0.364381 0.420393
4 1 0.806732 0.371745 0.431177
7 1 0.738869 0.401736 0.410493
2 1 0.820218 0.36567 0.462521
1 1 0.774228 0.39156 0.457715
ITEM: TIMESTEP
38000
ITEM: NUMBER OF ATOMS
10
ITEM: BOX BOUNDS pp pp pp
-1.0000000000000000e+01 1.0000000000000000e+01
-1.0000000000000000e+01 1.0000000000000000e+01
-1.0000000000000000e+01 1.0000000000000000e+01
ITEM: ATOMS id type xs ys zs
10 1 0.755117 0.34424 0.290062
9 1 0.762793 0.344164 0.333228
8 1 0.727672 0.380855 0.359089
6 1 0.717409 0.347881 0.388306
5 1 0.756015 0.366034 0.422166
4 1 0.807241 0.363281 0.43377
7 1 0.742805 0.396793 0.400626
3 1 0.848573 0.33369 0.4357
2 1 0.824582 0.375747 0.478969
1 1 0.773752 0.393825 0.463164
ITEM: TIMESTEP
39000
ITEM: NUMBER OF ATOMS
10
ITEM: BOX BOUNDS pp pp pp
-1.0000000000000000e+01 1.0000000000000000e+01
-1.0000000000000000e+01 1.0000000000000000e+01
-1.0000000000000000e+01 1.0000000000000000e+01
ITEM: ATOMS id type xs ys zs
10 1 0.738264 0.342608 0.279729
9 1 0.768451 0.35201 0.334907
8 1 0.729146 0.374783 0.34875
6 1 0.716562 0.351442 0.381756
5 1 0.749105 0.367961 0.422844
4 1 0.803109 0.361307 0.436663
7 1 0.747588 0.38883 0.401022
3 1 0.85256 0.341367 0.451479
2 1 0.830682 0.372767 0.477314
1 1 0.780491 0.393435 0.470617
ITEM: TIMESTEP
40000
ITEM: NUMBER OF ATOMS
10
ITEM: BOX BOUNDS pp pp pp
-1.0000000000000000e+01 1.0000000000000000e+01
-1.0000000000000000e+01 1.0000000000000000e+01
-1.0000000000000000e+01 1.0000000000000000e+01
ITEM: ATOMS id type xs ys zs
10 1 0.732946 0.344168 0.28657
9 1 0.771327 0.350497 0.315704
8 1 0.72509 0.37574 0.348611
6 1 0.715954 0.353434 0.376786
5 1 0.745807 0.367409 0.422025
7 1 0.752076 0.38312 0.396767
3 1 0.856743 0.341325 0.457594
4 1 0.800121 0.357772 0.440384
2 1 0.829901 0.379427 0.482017
1 1 0.785993 0.393618 0.478625
ITEM: TIMESTEP
41000
ITEM: NUMBER OF ATOMS
10
ITEM: BOX BOUNDS pp pp pp
-1.0000000000000000e+01 1.0000000000000000e+01
-1.0000000000000000e+01 1.0000000000000000e+01
-1.0000000000000000e+01 1.0000000000000000e+01
ITEM: ATOMS id type xs ys zs
10 1 0.718367 0.344098 0.29072
9 1 0.769156 0.358366 0.309243
8 1 0.738089 0.370023 0.344307
6 1 0.71473 0.352647 0.375765
7 1 0.759429 0.381099 0.389755
5 1 0.751988 0.362284 0.419142
3 1 0.84781 0.341501 0.45479
4 1 0.800485 0.351478 0.444745
2 1 0.83862 0.385975 0.490998
1 1 0.777285 0.399039 0.485617
ITEM: TIMESTEP
42000
ITEM: NUMBER OF ATOMS
10
ITEM: BOX BOUNDS pp pp pp
-1.0000000000000000e+01 1.0000000000000000e+01
-1.0000000000000000e+01 1.0000000000000000e+01
-1.0000000000000000e+01 1.0000000000000000e+01
ITEM: ATOMS id type xs ys zs
10 1 0.71047 0.346559 0.294326
9 1 0.767277 0.362285 0.294836
8 1 0.741363 0.364634 0.343036
6 1 0.720013 0.354631 0.382491
7 1 0.768402 0.379593 0.388084
5 1 0.757592 0.353901 0.409907
3 1 0.843547 0.34899 0.460243
4 1 0.789267 0.347498 0.446436
2 1 0.831318 0.387819 0.491539
1 1 0.786708 0.4006 0.494183
ITEM: TIMESTEP
43000
ITEM: NUMBER OF ATOMS
10
ITEM: BOX BOUNDS pp pp pp
-1.0000000000000000e+01 1.0000000000000000e+01
-1.0000000000000000e+01 1.0000000000000000e+01
-1.0000000000000000e+01 1.0000000000000000e+01
ITEM: ATOMS id type xs ys zs
10 1 0.715068 0.352823 0.30262
9 1 0.75398 0.361885 0.279924
8 1 0.744378 0.360237 0.33917
6 1 0.716973 0.359331 0.379953
7 1 0.771272 0.375183 0.384233
5 1 0.769033 0.346814 0.402217
4 1 0.78795 0.34225 0.457035
3 1 0.838673 0.351 0.460903
2 1 0.83611 0.390524 0.494637
1 1 0.782521 0.406463 0.504391
ITEM: TIMESTEP
44000
ITEM: NUMBER OF ATOMS
10
ITEM: BOX BOUNDS pp pp pp
-1.0000000000000000e+01 1.0000000000000000e+01
-1.0000000000000000e+01 1.0000000000000000e+01
-1.0000000000000000e+01 1.0000000000000000e+01
ITEM: ATOMS id type xs ys zs
10 1 0.705099 0.35552 0.317131
9 1 0.751636 0.365032 0.275096
8 1 0.752721 0.356927 0.323061
6 1 0.72534 0.36268 0.381057
7 1 0.769586 0.368041 0.375788
5 1 0.774522 0.341959 0.402295
4 1 0.781632 0.337355 0.456641
3 1 0.837357 0.351643 0.460404
2 1 0.834755 0.396143 0.500179
1 1 0.783311 0.41121 0.51343
ITEM: TIMESTEP
45000
ITEM: NUMBER OF ATOMS
10
ITEM: BOX BOUNDS pp pp pp
-1.0000000000000000e+01 1.0000000000000000e+01
-1.0000000000000000e+01 1.0000000000000000e+01
-1.0000000000000000e+01 1.0000000000000000e+01
ITEM: ATOMS id type xs ys zs
9 1 0.732838 0.366827 0.274416
10 1 0.710817 0.361438 0.31716
8 1 0.762863 0.352616 0.320752
6 1 0.726528 0.359483 0.388036
7 1 0.784768 0.362496 0.362495
5 1 0.770197 0.340924 0.402488
4 1 0.783325 0.335383 0.452647
3 1 0.826794 0.358932 0.467148
1 1 0.789414 0.415033 0.522124
2 1 0.828414 0.393377 0.497815
ITEM: TIMESTEP
46000
ITEM: NUMBER OF ATOMS
10
ITEM: BOX BOUNDS pp pp pp
-1.0000000000000000e+01 1.0000000000000000e+01
-1.0000000000000000e+01 1.0000000000000000e+01
-1.0000000000000000e+01 1.0000000000000000e+01
ITEM: ATOMS id type xs ys zs
9 1 0.72181 0.367004 0.270128
10 1 0.714278 0.366671 0.325992
8 1 0.76352 0.348744 0.305596
6 1 0.736433 0.362538 0.382218
7 1 0.783806 0.358001 0.365773
5 1 0.776149 0.335036 0.401197
4 1 0.7807 0.328734 0.451652
3 1 0.82105 0.357904 0.465208
2 1 0.829225 0.399781 0.503004
1 1 0.788986 0.422097 0.534313
ITEM: TIMESTEP
47000
ITEM: NUMBER OF ATOMS
10
ITEM: BOX BOUNDS pp pp pp
-1.0000000000000000e+01 1.0000000000000000e+01
-1.0000000000000000e+01 1.0000000000000000e+01
-1.0000000000000000e+01 1.0000000000000000e+01
ITEM: ATOMS id type xs ys zs
9 1 0.720103 0.363886 0.278126
10 1 0.717346 0.371287 0.3308
8 1 0.762631 0.352102 0.303686
6 1 0.740052 0.367822 0.377295
7 1 0.778995 0.348052 0.34616
5 1 0.784459 0.329608 0.395948
4 1 0.775876 0.32075 0.453994
3 1 0.818731 0.362088 0.468503
2 1 0.825746 0.403715 0.506945
1 1 0.792018 0.427199 0.543624
ITEM: TIMESTEP
48000
ITEM: NUMBER OF ATOMS
10
ITEM: BOX BOUNDS pp pp pp
-1.0000000000000000e+01 1.0000000000000000e+01
-1.0000000000000000e+01 1.0000000000000000e+01
-1.0000000000000000e+01 1.0000000000000000e+01
ITEM: ATOMS id type xs ys zs
9 1 0.710367 0.361612 0.283604
8 1 0.763134 0.357125 0.290848
7 1 0.783484 0.334852 0.340409
10 1 0.720929 0.376543 0.335089
6 1 0.75277 0.363244 0.37782
5 1 0.779155 0.332215 0.398137
4 1 0.785479 0.326205 0.447468
3 1 0.804767 0.362919 0.475363
2 1 0.817624 0.401669 0.506751
1 1 0.798248 0.430126 0.549593
ITEM: TIMESTEP
49000
ITEM: NUMBER OF ATOMS
10
ITEM: BOX BOUNDS pp pp pp
-1.0000000000000000e+01 1.0000000000000000e+01
-1.0000000000000000e+01 1.0000000000000000e+01
-1.0000000000000000e+01 1.0000000000000000e+01
ITEM: ATOMS id type xs ys zs
9 1 0.704831 0.361219 0.289639
8 1 0.763502 0.356639 0.287235
7 1 0.781281 0.330222 0.33248
10 1 0.722686 0.380599 0.336992
6 1 0.759888 0.366563 0.36569
5 1 0.780893 0.323561 0.397063
4 1 0.795227 0.325972 0.447764
3 1 0.791812 0.364557 0.482728
2 1 0.810363 0.405158 0.511494
1 1 0.805474 0.432021 0.553998
ITEM: TIMESTEP
50000
ITEM: NUMBER OF ATOMS
10
ITEM: BOX BOUNDS pp pp pp
-1.0000000000000000e+01 1.0000000000000000e+01
-1.0000000000000000e+01 1.0000000000000000e+01
-1.0000000000000000e+01 1.0000000000000000e+01
ITEM: ATOMS id type xs ys zs
9 1 0.709966 0.359936 0.296427
8 1 0.753979 0.354639 0.287993
7 1 0.778373 0.32733 0.319758
10 1 0.724127 0.385373 0.338635
6 1 0.769158 0.364561 0.357147
5 1 0.781811 0.321177 0.391343
4 1 0.803412 0.323754 0.448181
3 1 0.778535 0.364591 0.488791
2 1 0.804485 0.408032 0.513329
1 1 0.812112 0.43712 0.563478
ITEM: TIMESTEP
51000
ITEM: NUMBER OF ATOMS
10
ITEM: BOX BOUNDS pp pp pp
-1.0000000000000000e+01 1.0000000000000000e+01
-1.0000000000000000e+01 1.0000000000000000e+01
-1.0000000000000000e+01 1.0000000000000000e+01
ITEM: ATOMS id type xs ys zs
9 1 0.697656 0.359676 0.302205
8 1 0.755753 0.356789 0.277521
7 1 0.781587 0.317752 0.315395
10 1 0.725748 0.391454 0.343943
6 1 0.780597 0.355356 0.354739
5 1 0.787032 0.327 0.397637
4 1 0.796093 0.334886 0.445704
3 1 0.779106 0.359723 0.485349
2 1 0.795909 0.407469 0.519575
1 1 0.816478 0.436407 0.563014
ITEM: TIMESTEP
52000
ITEM: NUMBER OF ATOMS
10
ITEM: BOX BOUNDS pp pp pp
-1.0000000000000000e+01 1.0000000000000000e+01
-1.0000000000000000e+01 1.0000000000000000e+01
-1.0000000000000000e+01 1.0000000000000000e+01
ITEM: ATOMS id type xs ys zs
9 1 0.70779 0.363722 0.307818
8 1 0.746 0.350995 0.283601
7 1 0.778623 0.318384 0.303552
10 1 0.722567 0.392142 0.341561
6 1 0.791977 0.346728 0.346825
5 1 0.790202 0.3296 0.398313
4 1 0.791729 0.345458 0.447776
3 1 0.784214 0.369087 0.495198
2 1 0.785245 0.399997 0.526141
1 1 0.817611 0.430396 0.554297
ITEM: TIMESTEP
53000
ITEM: NUMBER OF ATOMS
10
ITEM: BOX BOUNDS pp pp pp
-1.0000000000000000e+01 1.0000000000000000e+01
-1.0000000000000000e+01 1.0000000000000000e+01
-1.0000000000000000e+01 1.0000000000000000e+01
ITEM: ATOMS id type xs ys zs
7 1 0.781552 0.314304 0.2941
8 1 0.74219 0.344844 0.279515
6 1 0.802628 0.338507 0.339736
9 1 0.701111 0.364018 0.310691
10 1 0.724478 0.401791 0.34994
5 1 0.793802 0.330586 0.394353
4 1 0.789255 0.353576 0.446996
3 1 0.78735 0.368069 0.497374
2 1 0.771173 0.404006 0.545533
1 1 0.822417 0.426808 0.546844
ITEM: TIMESTEP
54000
ITEM: NUMBER OF ATOMS
10
ITEM: BOX BOUNDS pp pp pp
-1.0000000000000000e+01 1.0000000000000000e+01
-1.0000000000000000e+01 1.0000000000000000e+01
-1.0000000000000000e+01 1.0000000000000000e+01
ITEM: ATOMS id type xs ys zs
8 1 0.735533 0.342328 0.277709
7 1 0.787874 0.310523 0.289572
6 1 0.810293 0.326808 0.336497