LAMMPS (19 Nov 2024 - Development - patch_19Nov2024-564-gf96768effb-modified)
OMP_NUM_THREADS environment is not set. Defaulting to 1 thread. (src/comm.cpp:99)
  using 1 OpenMP thread(s) per MPI task
###
# Box and units  (use LJ units and periodic boundaries)
###

units           lj
atom_style      ellipsoid
dimension	3
boundary	p p p

lattice		sc 0.75
Lattice spacing in x,y,z = 1.1006424 1.1006424 1.1006424
region		box block 0 36 0 36 0 36
create_box	1 box
Created orthogonal box = (0 0 0) to (39.623127 39.623127 39.623127)
  1 by 2 by 2 MPI processor grid
create_atoms	1 box
Created 46656 atoms
  using lattice units in orthogonal box = (0 0 0) to (39.623127 39.623127 39.623127)
  create_atoms CPU = 0.001 seconds

group           all type 1
46656 atoms in group all
set             type 1 mass 1.0
Setting atom values ...
  46656 settings made for mass
set             type 1 shape 1.0 0.4 0.8
Setting atom values ...
  46656 settings made for shape
set             type 1 quat/random 29898
Setting atom values ...
  46656 settings made for quat/random

velocity 	all create 0.1 87287 loop geom

neighbor        0.3 bin
neigh_modify    delay 0 every 100 check yes

###################################################################
# Pair interaction between non-bonded atoms
#
#  Lennard-Jones 12-6 potential with cutoff:
#  potential E=4epsilon[ (sigma/r)^12 - (sigma/r)^6]  for r<r_cut
#
#  1.12246152962189 = 2^(1/6) is the minimum of the potential

pair_style      lj/cut 1.12246152962189

#
#  pair_coeff for lj/cut, specify 4:
#    * atom type interacting with
#    * atom type
#    * epsilon (energy units)
#    * sigma (distance units)
#

pair_coeff      1 1 1.0 1.1

#
#  pair_modify shift yes adds a constant to the potential such
#  that E(r_cut)=0. Forces remains unchanged.
#

pair_modify     shift yes

###################################################
reset_atoms 	id sort yes
Resetting atom IDs ...
Generated 0 of 0 mixed pair_coeff terms from geometric mixing rule
Neighbor list info ...
  update: every = 100 steps, delay = 0 steps, check = yes
  max neighbors/atom: 2000, page size: 100000
  master list distance cutoff = 1.4224615
  ghost atom cutoff = 1.4224615
  binsize = 0.71123076, bins = 56 56 56
  1 neighbor lists, perpetual/occasional/extra = 1 0 0
  (1) pair lj/cut, perpetual
      attributes: half, newton on
      pair build: half/bin/atomonly/newton
      stencil: half/bin/3d
      bin: standard

comm_modify cutoff 6
#comm_style tiled
#balance 1.2 rcb

###
# Set up fixes
###

fix 1 all   nve   ###NVE ensemble
#fix 2 all   langevin   1.0 1.0   2.0   424242   ###Langevin integrator Tstart Tstop 1/friction rndseed

compute ekin all ke
compute epot all pe
variable ekin equal c_ekin
variable epot equal c_epot
variable etot equal c_ekin+c_epot

fix 3 all print 5000 "$(step)  ekin = ${ekin} | epot = ${epot} | etot = ${etot}" screen yes

compute q all property/atom quatw quati quatj quatk
compute diameter all property/atom shapex shapey shapez
dump 1 all custom 5000 dump.polymer id type x y z c_q[1] c_q[2] c_q[3] c_q[4] c_diameter[1] c_diameter[2] c_diameter[3]
dump_modify 1 colname c_q[1] quatw colname c_q[2] quati colname c_q[3] quatj colname c_q[4] quatk

###################################################

timestep 0.0001 #0.012

run 100000
Generated 0 of 0 mixed pair_coeff terms from geometric mixing rule
0  ekin = 6998.24999999999 | epot = 54692.1052107314 | etot = 61690.3552107313
Per MPI rank memory allocation (min/avg/max) = 17.58 | 17.58 | 17.58 Mbytes
   Step          Temp          E_pair         E_mol          TotEng         Press     
         0   0.1            1.1722416      0              1.3222384      17.886604    
5000  ekin = 37721.7002483643 | epot = 23968.6147965183 | etot = 61690.3150448827
10000  ekin = 39825.5064110696 | epot = 21865.6209708846 | etot = 61691.1273819542
15000  ekin = 40183.2590506223 | epot = 21508.7375755103 | etot = 61691.9966261327
20000  ekin = 40562.3320475787 | epot = 21130.450732301 | etot = 61692.7827798797
25000  ekin = 40793.0262652204 | epot = 20900.526683783 | etot = 61693.5529490034
30000  ekin = 40790.734454563 | epot = 20902.8335849453 | etot = 61693.5680395083
35000  ekin = 40818.5595192539 | epot = 20874.5630158949 | etot = 61693.1225351488
40000  ekin = 40846.5497021742 | epot = 20847.1586812915 | etot = 61693.7083834657
45000  ekin = 40983.4980904982 | epot = 20710.2743734191 | etot = 61693.7724639173
50000  ekin = 40932.4950370418 | epot = 20761.5626405531 | etot = 61694.0576775949
55000  ekin = 40830.1890992268 | epot = 20864.0760735096 | etot = 61694.2651727363
60000  ekin = 40803.6595751496 | epot = 20891.2215856859 | etot = 61694.8811608355
65000  ekin = 40825.39274017 | epot = 20869.5257730175 | etot = 61694.9185131875
70000  ekin = 40823.5582122284 | epot = 20871.2383386986 | etot = 61694.7965509271
75000  ekin = 41068.4788636961 | epot = 20626.7665836079 | etot = 61695.245447304
80000  ekin = 40915.5950172225 | epot = 20779.4166688966 | etot = 61695.0116861191
85000  ekin = 40928.1842753564 | epot = 20766.5894661047 | etot = 61694.7737414611
90000  ekin = 40852.0961361981 | epot = 20843.284744618 | etot = 61695.3808808161
95000  ekin = 40805.2679183866 | epot = 20889.9234021318 | etot = 61695.1913205185
100000  ekin = 41088.9106740002 | epot = 20606.0675146851 | etot = 61694.9781886853
    100000   0.58713122     0.44165954     0              1.3223375      6.1692184    
Loop time of 87.8512 on 4 procs for 100000 steps with 46656 atoms

Performance: 9834.816 tau/day, 1138.289 timesteps/s, 53.108 Matom-step/s
82.7% CPU use with 4 MPI tasks x 1 OpenMP threads

MPI task timing breakdown:
Section |  min time  |  avg time  |  max time  |%varavg| %total
---------------------------------------------------------------
Pair    | 27.04      | 27.555     | 28.758     |  13.4 | 31.37
Neigh   | 0.73316    | 0.74329    | 0.76877    |   1.7 |  0.85
Comm    | 48.978     | 50.474     | 51.105     |  12.2 | 57.45
Output  | 0.26539    | 0.27322    | 0.28033    |   1.1 |  0.31
Modify  | 4.5518     | 4.6584     | 4.8265     |   4.8 |  5.30
Other   |            | 4.147      |            |       |  4.72

Nlocal:          11664 ave       11684 max       11643 min
Histogram: 2 0 0 0 0 0 0 0 0 2
Nghost:        27521.2 ave       27565 max       27497 min
Histogram: 1 1 1 0 0 0 0 0 0 1
Neighs:        59893.5 ave       60131 max       59701 min
Histogram: 1 0 0 2 0 0 0 0 0 1

Total # of neighbors = 239574
Ave neighs/atom = 5.1349023
Neighbor list builds = 212
Dangerous builds = 0

write_data data_out.* nocoeff
System init for write_data ...
Generated 0 of 0 mixed pair_coeff terms from geometric mixing rule
Total wall time: 0:01:27
