# LAMMPS data file written by OVITO Basic 3.9.2

3 atoms
1 atom types
3 ellipsoids

-5.0 5.0 xlo xhi
-5.0 5.0 ylo yhi
-5.0 5.0 zlo zhi

Atoms  # ellipsoid

1 1 1 238.7324039657 -2.0 2.0 -2.5 0 0 0
2 1 1 238.7324039657 -1.0 1.0 2.5 0 0 0
3 1 1 238.7324039657 2.0 -2.0 2.5 0 0 0

Velocities

1 0.0 0.0 10 0.0 0.0 0.0
2 0.0 0.0 0 0.0 0.0 0.0
3 0.0 0.0 -20 0.0 0.0 0.0

Ellipsoids

1 0.5 0.5 1.0 1.0 0.0 0.0 0.0
2 0.3 0.6 0.3 0.0 0.707106816 0.0 0.707106816
3 0.5 1.0 0.5 0.9237853184 0.382910976 0.0 0.0
