LAMMPS data file via write_data, version 2 Aug 2023, timestep = 20000, units = lj

1000 atoms
1 atom types
1000 ellipsoids

0 11.00642416298209 xlo xhi
0 11.00642416298209 ylo yhi
0 11.00642416298209 zlo zhi

Atoms # ellipsoid/kk

101 1 1 0.6366197723675814 0.4686607257376641 0.6544681974527304 0.40985726335826084 0 0 0
3 1 1 0.6366197723675814 2.1086101461793616 0.13150931560784546 0.43427469130841756 0 0 0
4 1 1 0.6366197723675814 3.198146021475837 0.3890480119980625 0.06334888627921803 0 0 0
105 1 1 0.6366197723675814 4.148920147480104 0.2996167142940659 0.720001166749968 0 0 0
9 1 1 0.6366197723675814 9.223716494440563 0.03475475645854898 0.010623001451084767 0 0 0
13 1 1 0.6366197723675814 2.457230191377283 1.2216085935837453 0.4233423346033461 0 0 0
16 1 1 0.6366197723675814 5.1582405282878705 0.9170558229179862 0.39471469576940954 0 0 0
17 1 1 0.6366197723675814 6.283438403527029 0.7894524076866749 0.2063664055529853 0 0 0
18 1 1 0.6366197723675814 7.307816561394393 1.2242939025696382 0.4948435626194398 0 0 0
19 1 1 0.6366197723675814 8.488589439400831 0.9686595989996352 0.11371494946154179 0 0 0
20 1 1 0.6366197723675814 9.65318513175753 0.9915899028433901 0.4202072670866068 0 0 0
121 1 1 0.6366197723675814 0.772241615693416 1.9755323318428115 0.5816404787871865 0 0 0
15 1 1 0.6366197723675814 4.428131551479069 1.8109433012508753 0.4872939302999254 0 0 0
29 1 1 0.6366197723675814 8.964410497767467 2.1234392026028615 0.2327174712849745 0 0 0
11 1 1 0.6366197723675814 10.797742195569734 1.5164784018923385 0.1920962149787827 -1 0 0
123 1 1 0.6366197723675814 2.654136380069419 2.7372206036380673 0.31502419242192375 0 0 0
30 1 1 0.6366197723675814 10.007636764963891 2.274492111326997 0.1459878695526538 0 0 0
130 1 1 0.6366197723675814 0.021799276404812745 2.8319386697783244 0.5072440486643084 1 0 0
133 1 1 0.6366197723675814 1.6620301520439589 3.195137861247843 0.5708717629768543 0 0 0
34 1 1 0.6366197723675814 3.5074027943687662 3.4589607517778522 0.20204884404523785 0 0 0
36 1 1 0.6366197723675814 5.6294190732478855 3.326549901333707 0.3600307790887682 0 0 0
37 1 1 0.6366197723675814 7.036824529722513 3.0071592513669483 0.15646567359517768 0 0 0
38 1 1 0.6366197723675814 8.195004763315403 3.337697392381253 0.04725960913439152 0 0 0
39 1 1 0.6366197723675814 9.730202997452128 3.312663737319054 0.38394078249558283 0 0 0
143 1 1 0.6366197723675814 2.235479485272082 4.210041181086933 0.7418218299330213 0 0 0
146 1 1 0.6366197723675814 5.310478713398327 4.400545927232455 0.5807138061846121 0 0 0
31 1 1 0.6366197723675814 10.847278857433666 3.95576916123315 0.5198134293326176 -1 0 0
144 1 1 0.6366197723675814 3.198452927690403 4.831041470990897 0.464379621677885 0 0 0
45 1 1 0.6366197723675814 4.1950249052690864 4.59568839518862 0.10339482479580361 0 0 0
57 1 1 0.6366197723675814 7.136069561315795 5.1236058057045994 0.13280371165630447 0 0 0
49 1 1 0.6366197723675814 8.797793071602054 4.562877011604311 0.6979609281526111 0 0 0
50 1 1 0.6366197723675814 9.683307502626814 4.406817116456926 0.06653030154015033 0 0 0
41 1 1 0.6366197723675814 10.800925529627476 5.043123518558836 0.3017662858008745 -1 0 0
153 1 1 0.6366197723675814 1.8098894764854052 5.55069529921755 0.4900943274679273 0 0 0
59 1 1 0.6366197723675814 8.885705349952778 5.6032838026937775 0.19292671756725552 0 0 0
62 1 1 0.6366197723675814 0.9641259985949556 6.546628083622152 0.4594193813131616 0 0 0
63 1 1 0.6366197723675814 2.288183136750926 6.6120862158790406 0.11608075199461565 0 0 0
66 1 1 0.6366197723675814 5.5005868192893095 6.502043720273148 0.3404241012481849 0 0 0
67 1 1 0.6366197723675814 6.663895909869676 6.256709479610523 0.25754524453492394 0 0 0
158 1 1 0.6366197723675814 7.641483685259141 5.937603179016641 0.7093619945789571 0 0 0
70 1 1 0.6366197723675814 9.63527070565009 6.367355988411623 0.6653549835779057 0 0 0
75 1 1 0.6366197723675814 4.227080517628176 7.276911946639358 0.32063776631655583 0 0 0
68 1 1 0.6366197723675814 7.429785274004817 7.078952985422718 0.06859395023565815 0 0 0
69 1 1 0.6366197723675814 8.68820420255722 7.026329734142468 0.061517536192593134 0 0 0
61 1 1 0.6366197723675814 10.86581578483569 6.763975323208754 0.1276262564318331 -1 0 0
72 1 1 0.6366197723675814 1.2527416332051373 7.620640234541154 0.19231770816739108 0 0 0
173 1 1 0.6366197723675814 2.3798261185347487 7.642679887862028 0.5355164044310823 0 0 0
178 1 1 0.6366197723675814 8.27184932810993 7.913713319821657 0.6297976931939455 0 0 0
80 1 1 0.6366197723675814 10.0054457959265 7.345879204018205 0.05838515736536614 0 0 0
82 1 1 0.6366197723675814 1.201056203887569 8.763532180608678 0.10812656633526178 0 0 0
83 1 1 0.6366197723675814 2.4007119646173747 8.710220605031957 10.989550794889944 0 0 -1
86 1 1 0.6366197723675814 5.2338830411789266 8.448356944593767 0.11153441897917082 0 0 0
176 1 1 0.6366197723675814 6.170043916982776 8.267192133737822 0.6878486713266622 0 0 0
79 1 1 0.6366197723675814 9.192650467696726 8.190158574674847 0.07927793661603397 0 0 0
85 1 1 0.6366197723675814 4.4970425159521925 9.159976091442669 0.6041995365671005 0 0 0
87 1 1 0.6366197723675814 6.685620916594921 9.221222362479198 0.3577011285742542 0 0 0
89 1 1 0.6366197723675814 9.185292810406715 9.257677750615903 0.27516603148473123 0 0 0
90 1 1 0.6366197723675814 10.158735736210483 8.791052891017314 0.1453229137897361 0 0 0
92 1 1 0.6366197723675814 0.48572328109741436 9.729126107413107 0.4044591716797843 0 0 0
96 1 1 0.6366197723675814 4.994083491219616 10.039879245470443 0.2272449776038649 0 0 0
99 1 1 0.6366197723675814 8.646135690605737 10.19284271594289 0.5866783174295724 0 0 0
100 1 1 0.6366197723675814 10.01609832438952 10.032927553057991 0.07294288613204475 0 0 0
95 1 1 0.6366197723675814 3.846242019203439 10.39976703589994 10.985420920689695 0 0 -1
97 1 1 0.6366197723675814 6.174760297687328 10.398569993662477 0.19144208009772426 0 0 0
10 1 1 0.6366197723675814 10.798805492587249 10.797340686051877 0.42799233054863944 0 -1 0
103 1 1 0.6366197723675814 2.3870256283678284 0.6494084454660951 1.3861903775389972 0 0 0
106 1 1 0.6366197723675814 5.814462833446669 0.7448817099372851 1.4868343516715927 0 0 0
107 1 1 0.6366197723675814 6.842772543373508 0.4485951752489869 1.192538544723017 0 0 0
108 1 1 0.6366197723675814 8.121661395095499 0.2526441674024128 0.894170035837161 0 0 0
110 1 1 0.6366197723675814 10.335772900515884 0.5287183033652352 1.2389368367238796 0 0 0
111 1 1 0.6366197723675814 0.24699630430055228 1.1908637401891193 1.463327698330184 0 0 0
112 1 1 0.6366197723675814 1.3813085398557152 1.0601769876246727 0.9519513800463865 0 0 0
114 1 1 0.6366197723675814 3.5126856212782465 1.2661130549598894 0.8745027114991154 0 0 0
115 1 1 0.6366197723675814 4.520232883334215 1.0918020035777505 1.4402603463839205 0 0 0
122 1 1 0.6366197723675814 1.8726497358964218 2.1060241118440834 0.7373481520855503 0 0 0
116 1 1 0.6366197723675814 5.45874757075468 1.9250394310714243 0.9082605477539265 0 0 0
118 1 1 0.6366197723675814 8.74695597227782 1.6202078248998035 1.1703267336234981 0 0 0
120 1 1 0.6366197723675814 10.094527412614998 1.6764058071795744 1.1840534823840556 0 0 0
132 1 1 0.6366197723675814 0.9045637704401452 2.8574206124415102 1.3551477244970493 0 0 0
124 1 1 0.6366197723675814 3.491124794056864 2.4210875900982036 1.027895464329656 0 0 0
126 1 1 0.6366197723675814 6.170271534047212 2.8003561590176664 1.1545545966473278 0 0 0
127 1 1 0.6366197723675814 7.146875952013282 2.1653940789543373 0.9710081275681565 0 0 0
128 1 1 0.6366197723675814 8.244101804275541 2.569238142360347 0.9377478116741521 0 0 0
134 1 1 0.6366197723675814 2.90843776208414 3.398107388925527 1.2863997375906289 0 0 0
125 1 1 0.6366197723675814 4.619960318232595 2.9712509550545265 0.795139342994289 0 0 0
136 1 1 0.6366197723675814 5.335045483468837 3.607153779010275 1.3856215932027283 0 0 0
138 1 1 0.6366197723675814 7.396126074215007 3.2402913518426035 1.1497193273059083 0 0 0
139 1 1 0.6366197723675814 8.526792233304791 3.602695424249058 1.1981214924937293 0 0 0
145 1 1 0.6366197723675814 4.231917389509053 4.061807297727643 1.0303668562269268 0 0 0
137 1 1 0.6366197723675814 6.503595781502197 3.864765700398646 0.7326845768760528 0 0 0
148 1 1 0.6366197723675814 7.529054661963585 4.28742561981323 0.899960010641671 0 0 0
140 1 1 0.6366197723675814 9.863304374245104 4.11986514514633 1.1562609806481117 0 0 0
142 1 1 0.6366197723675814 0.8733855599346043 4.497673491788575 0.9142416885112249 0 0 0
243 1 1 0.6366197723675814 1.8515229749925837 4.97718087494622 1.487334119623232 0 0 0
147 1 1 0.6366197723675814 6.7056251403402225 5.0373365519770195 1.2626831405809409 0 0 0
141 1 1 0.6366197723675814 10.764666993947424 4.789389634581162 1.4520137230869565 -1 0 0
152 1 1 0.6366197723675814 0.7440694786876347 5.518689900133978 0.7849717650435054 0 0 0
154 1 1 0.6366197723675814 2.6982891243195875 5.716394416833814 1.239222871830163 0 0 0
155 1 1 0.6366197723675814 4.147836942998842 5.293641631413024 1.0226584993554828 0 0 0
156 1 1 0.6366197723675814 5.60048339382705 5.462140250925026 0.863765405738338 0 0 0
159 1 1 0.6366197723675814 8.527805545499325 5.452937823937547 1.3476555722757344 0 0 0
150 1 1 0.6366197723675814 9.78534090883114 5.216998962292946 0.8438027262552203 0 0 0
162 1 1 0.6366197723675814 1.4815380745541267 6.2382362599195975 1.3829389980555007 0 0 0
164 1 1 0.6366197723675814 3.5436355373294037 6.227688312459842 0.7181587585142947 0 0 0
165 1 1 0.6366197723675814 4.5706007014794565 6.405354329223928 0.9819881543741754 0 0 0
157 1 1 0.6366197723675814 6.48328727303103 6.138688220392991 1.3426429818966872 0 0 0
169 1 1 0.6366197723675814 8.597419361560895 6.465626100890854 1.0214412888543176 0 0 0
151 1 1 0.6366197723675814 10.657694876923882 5.841487829297942 1.1755460414614556 -1 0 0
163 1 1 0.6366197723675814 2.4707704535206223 6.816163915817169 1.2379382144589526 0 0 0
174 1 1 0.6366197723675814 3.498547128316406 7.18469739589501 1.3350044175386455 0 0 0
167 1 1 0.6366197723675814 6.505421233446743 7.238704229211776 0.9116592237932897 0 0 0
168 1 1 0.6366197723675814 7.554597670580551 6.9709148068863565 1.2019227592436594 0 0 0
170 1 1 0.6366197723675814 10.383370022714955 6.9677889551576095 1.2944835668056993 0 0 0
171 1 1 0.6366197723675814 0.3492331191543295 7.492819239324148 0.8809311707417762 0 0 0
172 1 1 0.6366197723675814 1.440562652595622 7.3183528534307785 1.3970517801342104 0 0 0
76 1 1 0.6366197723675814 5.241158562508113 7.529925088960602 0.7810920831903934 0 0 0
278 1 1 0.6366197723675814 7.2592180706360026 8.057964677069046 1.1204793771684822 0 0 0
179 1 1 0.6366197723675814 9.211685473629036 7.447705990674511 1.0311671579225508 0 0 0
180 1 1 0.6366197723675814 10.251785323244022 8.045607046820649 0.9532827696134781 0 0 0
182 1 1 0.6366197723675814 0.8424935091104253 8.400562988870902 1.1664178342941605 0 0 0
183 1 1 0.6366197723675814 2.0351542785874606 8.55687712965989 1.1506403242833003 0 0 0
184 1 1 0.6366197723675814 3.2995219201645436 8.261628023624212 0.8892207144022756 0 0 0
175 1 1 0.6366197723675814 4.3838053146326645 8.136651277237362 1.168283856596318 0 0 0
189 1 1 0.6366197723675814 9.178477862207108 8.50695081954745 1.1795616630853585 0 0 0
194 1 1 0.6366197723675814 2.852513988022011 9.40136277842264 0.9437922383815723 0 0 0
186 1 1 0.6366197723675814 5.6127749381664245 9.20843775441833 0.9254993183916291 0 0 0
188 1 1 0.6366197723675814 7.729492801197764 9.202200610590001 0.9978624412236193 0 0 0
181 1 1 0.6366197723675814 10.899259981073756 9.036315805031213 1.0854923987893168 -1 0 0
93 1 1 0.6366197723675814 1.7868766273094454 9.624904187685214 0.7816171601834625 0 0 0
195 1 1 0.6366197723675814 3.9475231112256566 10.037665603072412 1.1246361764358233 0 0 0
197 1 1 0.6366197723675814 6.381045759846842 9.975799300697563 1.1890399036328603 0 0 0
190 1 1 0.6366197723675814 9.916768320120047 9.471502907266645 1.158873509234928 0 0 0
191 1 1 0.6366197723675814 10.77972101733404 10.202172068508446 1.517074269039791 -1 0 0
102 1 1 0.6366197723675814 1.0416435423370791 10.860905031691155 1.1471256678285808 0 -1 0
104 1 1 0.6366197723675814 2.9464870121133115 10.71609859732737 1.0159085259616698 0 -1 0
196 1 1 0.6366197723675814 5.40392988629396 10.575209780934278 1.2027602220946692 0 0 0
198 1 1 0.6366197723675814 7.351725148790883 10.508708552430154 0.9140369360604208 0 0 0
200 1 1 0.6366197723675814 9.821038123780484 10.630979329980313 0.9773455153996108 0 0 0
201 1 1 0.6366197723675814 0.2431896340628957 0.14202830882028533 1.8798227567486152 0 0 0
212 1 1 0.6366197723675814 1.2289672039952058 0.6432574964506943 2.0634463983516955 0 0 0
204 1 1 0.6366197723675814 3.429003570300844 0.4466784690598416 1.7031797240214965 0 0 0
208 1 1 0.6366197723675814 7.680738361500941 0.08774163337295889 1.906090594019859 0 0 0
119 1 1 0.6366197723675814 9.204385646339691 0.5683605489048135 1.4765869430387006 0 0 0
117 1 1 0.6366197723675814 7.77682678664404 1.1456137476118944 1.476126087371815 0 0 0
222 1 1 0.6366197723675814 1.1187956972395583 1.850462126316352 2.040290074637368 0 0 0
113 1 1 0.6366197723675814 2.4520347165001333 1.7626592659094722 1.591071367252306 0 0 0
214 1 1 0.6366197723675814 3.450085436376905 1.4391029844846799 2.098565808452741 0 0 0
225 1 1 0.6366197723675814 4.347606163180166 2.1408079504346276 1.6414128988491998 0 0 0
216 1 1 0.6366197723675814 5.3756453372145705 1.5464778307191909 2.136635924390216 0 0 0
227 1 1 0.6366197723675814 6.439411790777407 1.7960204272694018 1.6462182384580297 0 0 0
228 1 1 0.6366197723675814 7.642651291905243 2.1617272881771945 1.9404253880274782 0 0 0
223 1 1 0.6366197723675814 2.0445631065554513 2.8230155119283045 1.6988683554505473 0 0 0
224 1 1 0.6366197723675814 3.1048898735554915 2.5342951887779965 2.043341232541094 0 0 0
226 1 1 0.6366197723675814 5.765148774180051 2.5655513857112564 2.1666179595035397 0 0 0
129 1 1 0.6366197723675814 9.328400046145358 2.63880295747369 1.3915693643820797 0 0 0
221 1 1 0.6366197723675814 10.880329049924297 2.3404593514222984 1.7533890436324275 -1 0 0
135 1 1 0.6366197723675814 3.9859683625782876 3.2094117785786755 1.802833017895787 0 0 0
237 1 1 0.6366197723675814 6.894253815445308 2.925215229232347 2.1629901951600328 0 0 0
238 1 1 0.6366197723675814 8.011866093586322 3.3448636092617003 2.162348355905828 0 0 0
239 1 1 0.6366197723675814 9.156202200233416 3.612529054209339 2.1172006755953836 0 0 0
240 1 1 0.6366197723675814 10.251167788305514 3.2430083763349096 1.7557993177920634 0 0 0
131 1 1 0.6366197723675814 0.3076154881501974 3.8511622965702172 1.7441044560974441 0 0 0
242 1 1 0.6366197723675814 1.4027080145544877 3.905297595726274 1.8010358334621053 0 0 0
247 1 1 0.6366197723675814 6.665968240346465 4.133019848520142 1.9298277558698587 0 0 0
252 1 1 0.6366197723675814 0.957011409681837 4.908250311403344 2.1398649270274923 0 0 0
244 1 1 0.6366197723675814 2.8950669341475344 4.690749994252752 1.5778066113279725 0 0 0
255 1 1 0.6366197723675814 4.220343684303108 5.087236859405664 2.163814346237851 0 0 0
246 1 1 0.6366197723675814 5.57381450425596 4.59770799621489 1.821791164937469 0 0 0
248 1 1 0.6366197723675814 7.847904590533396 4.502799969752046 1.9152170424446342 0 0 0
149 1 1 0.6366197723675814 9.299200267517508 4.779986088444012 1.9008198633253004 0 0 0
253 1 1 0.6366197723675814 2.0900458379932485 5.9080307302511725 2.2077060527922376 0 0 0
256 1 1 0.6366197723675814 5.162678947803492 5.689250819425587 2.1220252038372993 0 0 0
258 1 1 0.6366197723675814 7.478448598253905 5.621684540986288 1.8402929113549595 0 0 0
161 1 1 0.6366197723675814 0.37472376377678107 6.551330887457852 1.569089749869152 0 0 0
265 1 1 0.6366197723675814 4.057891475953219 6.141141191551359 2.009589756001547 0 0 0
269 1 1 0.6366197723675814 8.6849865140051 6.448442623926789 2.144337155447751 0 0 0
160 1 1 0.6366197723675814 9.545569112035807 5.9582191798756385 1.6946410073906757 0 0 0
264 1 1 0.6366197723675814 3.1004736721439583 6.663284169631163 2.196491891063359 0 0 0
275 1 1 0.6366197723675814 4.610960194671943 7.30718136236314 1.9529776129017926 0 0 0
166 1 1 0.6366197723675814 5.453785199730777 6.682811135175684 1.5340589496673158 0 0 0
267 1 1 0.6366197723675814 6.675082446870664 6.978475490889312 2.0224429121878162 0 0 0
280 1 1 0.6366197723675814 9.562657830179612 7.238847724182792 2.03078431502887 0 0 0
273 1 1 0.6366197723675814 2.621491827113656 7.75666813313446 1.8045443847496245 0 0 0
274 1 1 0.6366197723675814 3.6721482679904085 7.941375323606869 2.140488937794422 0 0 0
277 1 1 0.6366197723675814 6.382591672058724 8.022726484562261 2.2198193821539416 0 0 0
279 1 1 0.6366197723675814 8.354836173929982 7.498417203000605 1.7529779900193119 0 0 0
271 1 1 0.6366197723675814 10.649184862492717 7.733871986933867 2.106426859385254 -1 0 0
282 1 1 0.6366197723675814 1.4485393802818127 8.658038752370329 2.092272856250331 0 0 0
276 1 1 0.6366197723675814 5.393058133070464 8.25152639549828 1.7794079193519006 0 0 0
288 1 1 0.6366197723675814 7.806081718202539 8.558028320551792 1.9168356462618925 0 0 0
290 1 1 0.6366197723675814 9.936332249812832 8.58083907838683 1.9962663617335012 0 0 0
283 1 1 0.6366197723675814 2.6932582950167268 8.821468250349774 2.0848681482055067 0 0 0
284 1 1 0.6366197723675814 3.7323835413122457 9.10242921176009 1.631532504391506 0 0 0
187 1 1 0.6366197723675814 6.697389406104026 8.97385916906395 1.7206395795920262 0 0 0
199 1 1 0.6366197723675814 8.568058732008668 9.348398675169172 1.6027579517478452 0 0 0
192 1 1 0.6366197723675814 0.9015446819594082 9.744897365942082 1.5964215888226805 0 0 0
294 1 1 0.6366197723675814 2.9764476434804745 9.95248751053954 1.9430049129852112 0 0 0
185 1 1 0.6366197723675814 4.778361738291595 9.574087786744672 1.6036732997440115 0 0 0
296 1 1 0.6366197723675814 5.751277689346608 9.897095532067796 2.1274620719279187 0 0 0
298 1 1 0.6366197723675814 7.545215614437076 9.933492430094965 1.9810273317224019 0 0 0
193 1 1 0.6366197723675814 2.0674236915382687 10.55453626318374 1.6040228243835168 0 0 0
205 1 1 0.6366197723675814 4.395533328245551 10.864023686718456 1.7359057527482267 0 -1 0
207 1 1 0.6366197723675814 6.494778581096711 10.725344119460969 1.9550702537749283 0 -1 0
109 1 1 0.6366197723675814 8.571211673550643 10.509979213348325 1.6460916097967941 0 -1 0
210 1 1 0.6366197723675814 10.05640064561914 10.656142984859763 2.19877230602577 0 -1 0
302 1 1 0.6366197723675814 0.5855863421596087 0.5116463279878296 2.946952861622174 0 0 0
206 1 1 0.6366197723675814 5.442181126622738 0.08944657944250653 2.4163756072718003 0 0 0
209 1 1 0.6366197723675814 8.929798295115594 0.04200623512655971 2.5340977768606847 0 0 0
203 1 1 0.6366197723675814 2.3213552462398326 1.0394672523082653 2.4053361445690857 0 0 0
215 1 1 0.6366197723675814 4.369353324906021 0.8333537119386573 2.548212497838362 0 0 0
217 1 1 0.6366197723675814 6.6610127089275695 0.8527898703924016 2.3972418378296996 0 0 0
218 1 1 0.6366197723675814 7.68770737280154 1.1717021022153575 2.6058361879923835 0 0 0
219 1 1 0.6366197723675814 8.84727978674351 1.2620074302549544 2.322758230504617 0 0 0
220 1 1 0.6366197723675814 9.903265885946453 0.8756699706273581 2.3271555647669926 0 0 0
211 1 1 0.6366197723675814 0.10577472757427427 1.5137310343732495 2.536362201959296 0 0 0
213 1 1 0.6366197723675814 2.0959109990938796 2.130575688364615 2.5739911288901345 0 0 0
325 1 1 0.6366197723675814 4.365807273532811 1.8930576310144274 2.8791662335759245 0 0 0
230 1 1 0.6366197723675814 9.819604840122482 1.9965195318858537 2.239601982975911 0 0 0
232 1 1 0.6366197723675814 1.2701017684428009 2.857338924975648 2.491448412312121 0 0 0
235 1 1 0.6366197723675814 4.763626391618801 2.913157614918392 2.5382261837328874 0 0 0
229 1 1 0.6366197723675814 8.578638816763284 2.368723195669592 2.415889869979011 0 0 0
231 1 1 0.6366197723675814 0.11455053031721078 3.093673335548993 2.512408293438212 0 0 0
241 1 1 0.6366197723675814 0.21633198019855718 4.099121542115382 2.8841298892396985 0 0 0
342 1 1 0.6366197723675814 1.341105414817727 4.085953671442974 3.013537053127991 0 0 0
233 1 1 0.6366197723675814 2.30065701218232 4.1075381879878785 2.352521460033208 0 0 0
234 1 1 0.6366197723675814 3.353001788145521 3.943594874939138 2.3637381021519506 0 0 0
245 1 1 0.6366197723675814 4.596706705288188 3.988638888276315 2.3079009664203705 0 0 0
236 1 1 0.6366197723675814 5.733077636506194 3.8406920076800275 2.6681570179360383 0 0 0
347 1 1 0.6366197723675814 7.411328442306312 3.9271273499005823 2.940934902853204 0 0 0
249 1 1 0.6366197723675814 8.578046248324522 4.284709633715198 2.9022805559318465 0 0 0
250 1 1 0.6366197723675814 10.310716991496326 4.245886885902639 2.227324849547145 0 0 0
345 1 1 0.6366197723675814 5.127097479419604 4.778524938816213 2.9249682475014005 0 0 0
346 1 1 0.6366197723675814 6.442172236044049 4.838110405997593 2.911460307680636 0 0 0
254 1 1 0.6366197723675814 3.1437096302045044 5.316313663347632 2.511596397754736 0 0 0
259 1 1 0.6366197723675814 8.574043774518477 5.41370459389005 2.5368769511545546 0 0 0
260 1 1 0.6366197723675814 9.888886572842443 5.41727149901412 2.729683132737991 0 0 0
251 1 1 0.6366197723675814 10.963820692051835 5.565112715542787 2.2565374583588547 -1 0 0
262 1 1 0.6366197723675814 1.0099981402116245 6.154404271750081 2.3930271893522574 0 0 0
365 1 1 0.6366197723675814 4.735325752212982 6.545237854233165 2.838156631037531 0 0 0
257 1 1 0.6366197723675814 6.161748561218577 6.034948607346373 2.4546191531814663 0 0 0
367 1 1 0.6366197723675814 7.1880712197402925 6.071101816835548 2.8787229433329653 0 0 0
263 1 1 0.6366197723675814 1.8963745359260633 6.796260610061089 2.7432913332700335 0 0 0
266 1 1 0.6366197723675814 5.654895872489181 7.155593886872224 2.4970637004828378 0 0 0
268 1 1 0.6366197723675814 7.8113951509310064 7.033123712848242 2.566334639376738 0 0 0
379 1 1 0.6366197723675814 8.83235413476404 7.388704191041589 2.8554878713533243 0 0 0
261 1 1 0.6366197723675814 10.771679808461867 6.708756109590426 2.5294941536865436 -1 0 0
272 1 1 0.6366197723675814 0.7141638895032844 7.379882900480469 2.262762463841875 0 0 0
373 1 1 0.6366197723675814 2.130346099834909 7.964962196704173 2.710850330699168 0 0 0
281 1 1 0.6366197723675814 0.41231410981662775 8.461821195395094 2.239409529298383 0 0 0
285 1 1 0.6366197723675814 4.5828623633363135 8.543120679636958 2.5107290312724277 0 0 0
287 1 1 0.6366197723675814 6.990084391739544 8.847038434490871 2.9284074768138746 0 0 0
289 1 1 0.6366197723675814 8.920389975963326 8.375835599105727 2.375223018047458 0 0 0
292 1 1 0.6366197723675814 0.7643136615904147 9.444750648029943 2.6891653560213626 0 0 0
394 1 1 0.6366197723675814 3.615785434104717 9.528413443163497 2.650497038137464 0 0 0
286 1 1 0.6366197723675814 5.899205936037962 8.7777076510078 2.7844668773471772 0 0 0
291 1 1 0.6366197723675814 10.694551211739483 9.365392653175604 2.210556497393852 -1 0 0
293 1 1 0.6366197723675814 1.8840471344218859 9.654499255875251 2.4098866705151205 0 0 0
295 1 1 0.6366197723675814 4.748718954810191 10.088435652165948 2.597413354912666 0 0 0
297 1 1 0.6366197723675814 6.689160485190354 9.873212182829244 2.7516407001586716 0 0 0
299 1 1 0.6366197723675814 8.51726200168184 9.83478325052343 2.600666188206154 0 0 0
300 1 1 0.6366197723675814 9.597394135918774 9.660171903410953 2.2650928342441494 0 0 0
391 1 1 0.6366197723675814 0.20880844690439054 10.373449689635457 2.8690461735553994 0 0 0
202 1 1 0.6366197723675814 1.2072858017920634 10.509532189465673 2.331713630321966 0 -1 0
304 1 1 0.6366197723675814 2.6628712916163355 10.789522865392252 2.686024704167021 0 -1 0
305 1 1 0.6366197723675814 3.8155749197179327 10.751759573653203 2.692392610739787 0 -1 0
303 1 1 0.6366197723675814 1.6798295881044576 0.0975985887420224 3.1468420427021315 0 0 0
317 1 1 0.6366197723675814 6.134409685465971 0.510387554900517 3.305391359141506 0 0 0
308 1 1 0.6366197723675814 7.452461097547462 0.21812600924132225 3.0244123140386834 0 0 0
319 1 1 0.6366197723675814 8.421699170371765 0.8119367500653383 3.362098168459513 0 0 0
310 1 1 0.6366197723675814 9.41570583764024 0.18495577758326517 3.5889901281203027 0 0 0
301 1 1 0.6366197723675814 10.397662061205661 0.20879278882981966 3.030268800712846 -1 0 0
312 1 1 0.6366197723675814 1.3616670578959507 1.2692350259246037 3.1599729685240803 0 0 0
313 1 1 0.6366197723675814 2.4244867407664623 1.0963389103201995 3.51756274108704 0 0 0
314 1 1 0.6366197723675814 3.36825097298707 0.7208082028498244 3.011810149178724 0 0 0
315 1 1 0.6366197723675814 4.2322977923366905 0.9501158450092657 3.7057308324474914 0 0 0
316 1 1 0.6366197723675814 5.221826322589187 1.2015735765878628 3.2350734649593864 0 0 0
318 1 1 0.6366197723675814 7.05282748833849 1.276881683589792 3.5543326312683194 0 0 0
320 1 1 0.6366197723675814 9.512270972542236 1.323105543942696 3.4413125517351415 0 0 0
311 1 1 0.6366197723675814 10.689842666073698 1.2514291669411668 3.6165510322591476 -1 0 0
322 1 1 0.6366197723675814 0.5875272607039544 2.184835475745813 3.279701749567709 0 0 0
324 1 1 0.6366197723675814 3.1834900741324663 2.098066185829074 3.1965157352089415 0 0 0
327 1 1 0.6366197723675814 6.162008337997446 1.7245908549396174 2.894248398844504 0 0 0
329 1 1 0.6366197723675814 8.258374530132555 1.918229825168298 3.3364765311209443 0 0 0
326 1 1 0.6366197723675814 5.398598705665427 2.3331215773282925 3.440596821627045 0 0 0
328 1 1 0.6366197723675814 7.114717108525544 2.3315496109548697 3.185448516719591 0 0 0
330 1 1 0.6366197723675814 9.243855293387234 2.395226988062881 3.302780570425518 0 0 0
321 1 1 0.6366197723675814 10.45457035439937 2.2180069097776918 3.1141380346476386 -1 0 0
332 1 1 0.6366197723675814 1.242365413987415 3.1475578751160285 3.562551195707443 0 0 0
333 1 1 0.6366197723675814 2.694462023211999 3.096576244751135 2.8569674236546563 0 0 0
334 1 1 0.6366197723675814 3.73359735865566 3.229403094772017 3.2091350506164424 0 0 0
335 1 1 0.6366197723675814 4.768566433309999 3.6328280325454214 3.4284927009097244 0 0 0
337 1 1 0.6366197723675814 6.2514975422834205 2.9372301103807947 3.1020023852391447 0 0 0
338 1 1 0.6366197723675814 8.107699590279887 3.0765274991994613 3.2370824249067165 0 0 0
339 1 1 0.6366197723675814 9.122205559085252 3.527498878042132 3.4781027044645643 0 0 0
340 1 1 0.6366197723675814 10.087675140675513 3.329698447988099 2.933959674695803 0 0 0
343 1 1 0.6366197723675814 2.45877845443162 4.257619105244806 3.449177950525343 0 0 0
353 1 1 0.6366197723675814 1.8559757244381074 5.0885303691001615 2.979659537135838 0 0 0
344 1 1 0.6366197723675814 4.012661902504561 4.441987338840038 3.2244287945952217 0 0 0
358 1 1 0.6366197723675814 7.567589292067251 4.980087146166933 3.150409104382691 0 0 0
349 1 1 0.6366197723675814 9.358291110858493 4.800910937124696 3.5054188406693934 0 0 0
350 1 1 0.6366197723675814 10.491698421762182 4.744534061723116 3.359952501494716 0 0 0
352 1 1 0.6366197723675814 0.75364509681795 5.073834684695832 3.310439646809563 0 0 0
355 1 1 0.6366197723675814 4.410231415611086 5.575699859415385 3.260488148075778 0 0 0
356 1 1 0.6366197723675814 5.4950047740983585 5.7280476226320785 3.282921419572958 0 0 0
362 1 1 0.6366197723675814 1.5389597437595417 6.082066528296001 3.5036636458508843 0 0 0
363 1 1 0.6366197723675814 2.620392201349248 5.9888921421202745 3.1977554402936805 0 0 0
364 1 1 0.6366197723675814 3.6764113873764654 6.4065909152813605 3.2001745748892962 0 0 0
369 1 1 0.6366197723675814 8.39823132220812 6.35646694774191 3.273537909453993 0 0 0
270 1 1 0.6366197723675814 9.627318391411379 6.606422937004336 2.9770971590549413 0 0 0
351 1 1 0.6366197723675814 10.740775011743322 5.96794065790285 3.3795943310548076 -1 0 0
361 1 1 0.6366197723675814 0.6249987969481561 6.694942194459177 3.346971764758595 0 0 0
374 1 1 0.6366197723675814 2.8804011499450706 7.268357201779627 3.3184361078258813 0 0 0
366 1 1 0.6366197723675814 5.825193818560163 6.805871552558644 3.5018484923977318 0 0 0
372 1 1 0.6366197723675814 1.1985190261239518 7.762118759815808 3.260923500745373 0 0 0
375 1 1 0.6366197723675814 4.326877463540498 7.610795256258089 3.1804613630271295 0 0 0
376 1 1 0.6366197723675814 5.406809745420079 7.845387182940603 3.4092247186773936 0 0 0
377 1 1 0.6366197723675814 6.759576535031821 7.454462703285755 3.3566828481675026 0 0 0
378 1 1 0.6366197723675814 7.786974985198586 8.02014505143247 3.1144972687169545 0 0 0
380 1 1 0.6366197723675814 9.862784472098593 7.793770916513513 2.902560321491228 0 0 0
371 1 1 0.6366197723675814 10.974055551442136 7.579905968541798 3.225601371463482 -1 0 0
381 1 1 0.6366197723675814 0.4804124585253465 8.54544190167769 3.4982932395559776 0 0 0
384 1 1 0.6366197723675814 3.3732499535555553 8.295198887015127 3.1729848103082676 0 0 0
389 1 1 0.6366197723675814 9.225414583498825 8.550423108028337 3.4574078381134883 0 0 0
382 1 1 0.6366197723675814 1.5757953945646461 8.980167622336939 3.3440293741925093 0 0 0
383 1 1 0.6366197723675814 2.6530659783309227 9.148777300797601 3.139638624147281 0 0 0
396 1 1 0.6366197723675814 4.9694274610875775 9.162891838778885 3.3027153291829174 0 0 0
388 1 1 0.6366197723675814 8.155630889312787 9.069191650179755 3.407931619171617 0 0 0
390 1 1 0.6366197723675814 10.164620398272142 8.977759619283493 3.104306585564094 0 0 0
392 1 1 0.6366197723675814 1.0470546591496719 10.155214570397883 3.515230577727438 0 0 0
393 1 1 0.6366197723675814 2.136497235487467 10.0702342420673 3.3857149511820364 0 0 0
307 1 1 0.6366197723675814 5.62963271882534 10.082247420942181 3.2582627798178256 0 -1 0
398 1 1 0.6366197723675814 7.657061632157463 10.124370921104695 3.0982227441064145 0 0 0
399 1 1 0.6366197723675814 9.197226528121368 9.627662835472325 3.4084817857109293 0 0 0
400 1 1 0.6366197723675814 10.153380173236847 10.149092761007692 3.18567772741316 0 0 0
306 1 1 0.6366197723675814 4.777422892110992 0.022443142814751127 3.3208698575161124 0 0 0
309 1 1 0.6366197723675814 8.563595745449671 10.6243496175369 3.4906699132786536 0 -1 0