ITEM: TIMESTEP
0
ITEM: NUMBER OF ATOMS
1000
ITEM: BOX BOUNDS pp pp pp
0.0000000000000000e+00 1.1006424162982089e+01
0.0000000000000000e+00 1.1006424162982089e+01
0.0000000000000000e+00 1.1006424162982089e+01
ITEM: ATOMS id type xs ys zs
1 1 0 0 0
2 1 0.1 0 0
3 1 0.2 0 0
4 1 0.3 0 0
5 1 0.4 0 0
6 1 0.5 0 0
7 1 0.6 0 0
8 1 0.7 0 0
9 1 0.8 0 0
10 1 0.9 0 0
11 1 0 0.1 0
12 1 0.1 0.1 0
13 1 0.2 0.1 0
14 1 0.3 0.1 0
15 1 0.4 0.1 0
16 1 0.5 0.1 0
17 1 0.6 0.1 0
18 1 0.7 0.1 0
19 1 0.8 0.1 0
20 1 0.9 0.1 0
21 1 0 0.2 0
22 1 0.1 0.2 0
23 1 0.2 0.2 0
24 1 0.3 0.2 0
25 1 0.4 0.2 0
26 1 0.5 0.2 0
27 1 0.6 0.2 0
28 1 0.7 0.2 0
29 1 0.8 0.2 0
30 1 0.9 0.2 0
31 1 0 0.3 0
32 1 0.1 0.3 0
33 1 0.2 0.3 0
34 1 0.3 0.3 0
35 1 0.4 0.3 0
36 1 0.5 0.3 0
37 1 0.6 0.3 0
38 1 0.7 0.3 0
39 1 0.8 0.3 0
40 1 0.9 0.3 0
41 1 0 0.4 0
42 1 0.1 0.4 0
43 1 0.2 0.4 0
44 1 0.3 0.4 0
45 1 0.4 0.4 0
46 1 0.5 0.4 0
47 1 0.6 0.4 0
48 1 0.7 0.4 0
49 1 0.8 0.4 0
50 1 0.9 0.4 0
51 1 0 0.5 0
52 1 0.1 0.5 0
53 1 0.2 0.5 0
54 1 0.3 0.5 0
55 1 0.4 0.5 0
56 1 0.5 0.5 0
57 1 0.6 0.5 0
58 1 0.7 0.5 0
59 1 0.8 0.5 0
60 1 0.9 0.5 0
61 1 0 0.6 0
62 1 0.1 0.6 0
63 1 0.2 0.6 0
64 1 0.3 0.6 0
65 1 0.4 0.6 0
66 1 0.5 0.6 0
67 1 0.6 0.6 0
68 1 0.7 0.6 0
69 1 0.8 0.6 0
70 1 0.9 0.6 0
71 1 0 0.7 0
72 1 0.1 0.7 0
73 1 0.2 0.7 0
74 1 0.3 0.7 0
75 1 0.4 0.7 0
76 1 0.5 0.7 0
77 1 0.6 0.7 0
78 1 0.7 0.7 0
79 1 0.8 0.7 0
80 1 0.9 0.7 0
81 1 0 0.8 0
82 1 0.1 0.8 0
83 1 0.2 0.8 0
84 1 0.3 0.8 0
85 1 0.4 0.8 0
86 1 0.5 0.8 0
87 1 0.6 0.8 0
88 1 0.7 0.8 0
89 1 0.8 0.8 0
90 1 0.9 0.8 0
91 1 0 0.9 0
92 1 0.1 0.9 0
93 1 0.2 0.9 0
94 1 0.3 0.9 0
95 1 0.4 0.9 0
96 1 0.5 0.9 0
97 1 0.6 0.9 0
98 1 0.7 0.9 0
99 1 0.8 0.9 0
100 1 0.9 0.9 0
101 1 0 0 0.1
102 1 0.1 0 0.1
103 1 0.2 0 0.1
104 1 0.3 0 0.1
105 1 0.4 0 0.1
106 1 0.5 0 0.1
107 1 0.6 0 0.1
108 1 0.7 0 0.1
109 1 0.8 0 0.1
110 1 0.9 0 0.1
111 1 0 0.1 0.1
112 1 0.1 0.1 0.1
113 1 0.2 0.1 0.1
114 1 0.3 0.1 0.1
115 1 0.4 0.1 0.1
116 1 0.5 0.1 0.1
117 1 0.6 0.1 0.1
118 1 0.7 0.1 0.1
119 1 0.8 0.1 0.1
120 1 0.9 0.1 0.1
121 1 0 0.2 0.1
122 1 0.1 0.2 0.1
123 1 0.2 0.2 0.1
124 1 0.3 0.2 0.1
125 1 0.4 0.2 0.1
126 1 0.5 0.2 0.1
127 1 0.6 0.2 0.1
128 1 0.7 0.2 0.1
129 1 0.8 0.2 0.1
130 1 0.9 0.2 0.1
131 1 0 0.3 0.1
132 1 0.1 0.3 0.1
133 1 0.2 0.3 0.1
134 1 0.3 0.3 0.1
135 1 0.4 0.3 0.1
136 1 0.5 0.3 0.1
137 1 0.6 0.3 0.1
138 1 0.7 0.3 0.1
139 1 0.8 0.3 0.1
140 1 0.9 0.3 0.1
141 1 0 0.4 0.1
142 1 0.1 0.4 0.1
143 1 0.2 0.4 0.1
144 1 0.3 0.4 0.1
145 1 0.4 0.4 0.1
146 1 0.5 0.4 0.1
147 1 0.6 0.4 0.1
148 1 0.7 0.4 0.1
149 1 0.8 0.4 0.1
150 1 0.9 0.4 0.1
151 1 0 0.5 0.1
152 1 0.1 0.5 0.1
153 1 0.2 0.5 0.1
154 1 0.3 0.5 0.1
155 1 0.4 0.5 0.1
156 1 0.5 0.5 0.1
157 1 0.6 0.5 0.1
158 1 0.7 0.5 0.1
159 1 0.8 0.5 0.1
160 1 0.9 0.5 0.1
161 1 0 0.6 0.1
162 1 0.1 0.6 0.1
163 1 0.2 0.6 0.1
164 1 0.3 0.6 0.1
165 1 0.4 0.6 0.1
166 1 0.5 0.6 0.1
167 1 0.6 0.6 0.1
168 1 0.7 0.6 0.1
169 1 0.8 0.6 0.1
170 1 0.9 0.6 0.1
171 1 0 0.7 0.1
172 1 0.1 0.7 0.1
173 1 0.2 0.7 0.1
174 1 0.3 0.7 0.1
175 1 0.4 0.7 0.1
176 1 0.5 0.7 0.1
177 1 0.6 0.7 0.1
178 1 0.7 0.7 0.1
179 1 0.8 0.7 0.1
180 1 0.9 0.7 0.1
181 1 0 0.8 0.1
182 1 0.1 0.8 0.1
183 1 0.2 0.8 0.1
184 1 0.3 0.8 0.1
185 1 0.4 0.8 0.1
186 1 0.5 0.8 0.1
187 1 0.6 0.8 0.1
188 1 0.7 0.8 0.1
189 1 0.8 0.8 0.1
190 1 0.9 0.8 0.1
191 1 0 0.9 0.1
192 1 0.1 0.9 0.1
193 1 0.2 0.9 0.1
194 1 0.3 0.9 0.1
195 1 0.4 0.9 0.1
196 1 0.5 0.9 0.1
197 1 0.6 0.9 0.1
198 1 0.7 0.9 0.1
199 1 0.8 0.9 0.1
200 1 0.9 0.9 0.1
201 1 0 0 0.2
202 1 0.1 0 0.2
203 1 0.2 0 0.2
204 1 0.3 0 0.2
205 1 0.4 0 0.2
206 1 0.5 0 0.2
207 1 0.6 0 0.2
208 1 0.7 0 0.2
209 1 0.8 0 0.2
210 1 0.9 0 0.2
211 1 0 0.1 0.2
212 1 0.1 0.1 0.2
213 1 0.2 0.1 0.2
214 1 0.3 0.1 0.2
215 1 0.4 0.1 0.2
216 1 0.5 0.1 0.2
217 1 0.6 0.1 0.2
218 1 0.7 0.1 0.2
219 1 0.8 0.1 0.2
220 1 0.9 0.1 0.2
221 1 0 0.2 0.2
222 1 0.1 0.2 0.2
223 1 0.2 0.2 0.2
224 1 0.3 0.2 0.2
225 1 0.4 0.2 0.2
226 1 0.5 0.2 0.2
227 1 0.6 0.2 0.2
228 1 0.7 0.2 0.2
229 1 0.8 0.2 0.2
230 1 0.9 0.2 0.2
231 1 0 0.3 0.2
232 1 0.1 0.3 0.2
233 1 0.2 0.3 0.2
234 1 0.3 0.3 0.2
235 1 0.4 0.3 0.2
236 1 0.5 0.3 0.2
237 1 0.6 0.3 0.2
238 1 0.7 0.3 0.2
239 1 0.8 0.3 0.2
240 1 0.9 0.3 0.2
241 1 0 0.4 0.2
242 1 0.1 0.4 0.2
243 1 0.2 0.4 0.2
244 1 0.3 0.4 0.2
245 1 0.4 0.4 0.2
246 1 0.5 0.4 0.2
247 1 0.6 0.4 0.2
248 1 0.7 0.4 0.2
249 1 0.8 0.4 0.2
250 1 0.9 0.4 0.2
251 1 0 0.5 0.2
252 1 0.1 0.5 0.2
253 1 0.2 0.5 0.2
254 1 0.3 0.5 0.2
255 1 0.4 0.5 0.2
256 1 0.5 0.5 0.2
257 1 0.6 0.5 0.2
258 1 0.7 0.5 0.2
259 1 0.8 0.5 0.2
260 1 0.9 0.5 0.2
261 1 0 0.6 0.2
262 1 0.1 0.6 0.2
263 1 0.2 0.6 0.2
264 1 0.3 0.6 0.2
265 1 0.4 0.6 0.2
266 1 0.5 0.6 0.2
267 1 0.6 0.6 0.2
268 1 0.7 0.6 0.2
269 1 0.8 0.6 0.2
270 1 0.9 0.6 0.2
271 1 0 0.7 0.2
272 1 0.1 0.7 0.2
273 1 0.2 0.7 0.2
274 1 0.3 0.7 0.2
275 1 0.4 0.7 0.2
276 1 0.5 0.7 0.2
277 1 0.6 0.7 0.2
278 1 0.7 0.7 0.2
279 1 0.8 0.7 0.2
280 1 0.9 0.7 0.2
281 1 0 0.8 0.2
282 1 0.1 0.8 0.2
283 1 0.2 0.8 0.2
284 1 0.3 0.8 0.2
285 1 0.4 0.8 0.2
286 1 0.5 0.8 0.2
287 1 0.6 0.8 0.2
288 1 0.7 0.8 0.2
289 1 0.8 0.8 0.2
290 1 0.9 0.8 0.2
291 1 0 0.9 0.2
292 1 0.1 0.9 0.2
293 1 0.2 0.9 0.2
294 1 0.3 0.9 0.2
295 1 0.4 0.9 0.2
296 1 0.5 0.9 0.2
297 1 0.6 0.9 0.2
298 1 0.7 0.9 0.2
299 1 0.8 0.9 0.2
300 1 0.9 0.9 0.2
301 1 0 0 0.3
302 1 0.1 0 0.3
303 1 0.2 0 0.3
304 1 0.3 0 0.3
305 1 0.4 0 0.3
306 1 0.5 0 0.3
307 1 0.6 0 0.3
308 1 0.7 0 0.3
309 1 0.8 0 0.3
310 1 0.9 0 0.3
311 1 0 0.1 0.3
312 1 0.1 0.1 0.3
313 1 0.2 0.1 0.3
314 1 0.3 0.1 0.3
315 1 0.4 0.1 0.3
316 1 0.5 0.1 0.3
317 1 0.6 0.1 0.3
318 1 0.7 0.1 0.3
319 1 0.8 0.1 0.3
320 1 0.9 0.1 0.3
321 1 0 0.2 0.3
322 1 0.1 0.2 0.3
323 1 0.2 0.2 0.3
324 1 0.3 0.2 0.3
325 1 0.4 0.2 0.3
326 1 0.5 0.2 0.3
327 1 0.6 0.2 0.3
328 1 0.7 0.2 0.3
329 1 0.8 0.2 0.3
330 1 0.9 0.2 0.3
331 1 0 0.3 0.3
332 1 0.1 0.3 0.3
333 1 0.2 0.3 0.3
334 1 0.3 0.3 0.3
335 1 0.4 0.3 0.3
336 1 0.5 0.3 0.3
337 1 0.6 0.3 0.3
338 1 0.7 0.3 0.3
339 1 0.8 0.3 0.3
340 1 0.9 0.3 0.3
341 1 0 0.4 0.3
342 1 0.1 0.4 0.3
343 1 0.2 0.4 0.3
344 1 0.3 0.4 0.3
345 1 0.4 0.4 0.3
346 1 0.5 0.4 0.3
347 1 0.6 0.4 0.3
348 1 0.7 0.4 0.3
349 1 0.8 0.4 0.3
350 1 0.9 0.4 0.3
351 1 0 0.5 0.3
352 1 0.1 0.5 0.3
353 1 0.2 0.5 0.3
354 1 0.3 0.5 0.3
355 1 0.4 0.5 0.3
356 1 0.5 0.5 0.3
357 1 0.6 0.5 0.3
358 1 0.7 0.5 0.3
359 1 0.8 0.5 0.3
360 1 0.9 0.5 0.3
361 1 0 0.6 0.3
362 1 0.1 0.6 0.3
363 1 0.2 0.6 0.3
364 1 0.3 0.6 0.3
365 1 0.4 0.6 0.3
366 1 0.5 0.6 0.3
367 1 0.6 0.6 0.3
368 1 0.7 0.6 0.3
369 1 0.8 0.6 0.3
370 1 0.9 0.6 0.3
371 1 0 0.7 0.3
372 1 0.1 0.7 0.3
373 1 0.2 0.7 0.3
374 1 0.3 0.7 0.3
375 1 0.4 0.7 0.3
376 1 0.5 0.7 0.3
377 1 0.6 0.7 0.3
378 1 0.7 0.7 0.3
379 1 0.8 0.7 0.3
380 1 0.9 0.7 0.3
381 1 0 0.8 0.3
382 1 0.1 0.8 0.3
383 1 0.2 0.8 0.3
384 1 0.3 0.8 0.3
385 1 0.4 0.8 0.3
386 1 0.5 0.8 0.3
387 1 0.6 0.8 0.3
388 1 0.7 0.8 0.3
389 1 0.8 0.8 0.3
390 1 0.9 0.8 0.3
391 1 0 0.9 0.3
392 1 0.1 0.9 0.3
393 1 0.2 0.9 0.3
394 1 0.3 0.9 0.3
395 1 0.4 0.9 0.3
396 1 0.5 0.9 0.3
397 1 0.6 0.9 0.3
398 1 0.7 0.9 0.3
399 1 0.8 0.9 0.3
400 1 0.9 0.9 0.3
401 1 0 0 0.4
402 1 0.1 0 0.4
403 1 0.2 0 0.4
404 1 0.3 0 0.4
405 1 0.4 0 0.4
406 1 0.5 0 0.4
407 1 0.6 0 0.4
408 1 0.7 0 0.4
409 1 0.8 0 0.4
410 1 0.9 0 0.4
411 1 0 0.1 0.4
412 1 0.1 0.1 0.4
413 1 0.2 0.1 0.4
414 1 0.3 0.1 0.4
415 1 0.4 0.1 0.4
416 1 0.5 0.1 0.4
417 1 0.6 0.1 0.4
418 1 0.7 0.1 0.4
419 1 0.8 0.1 0.4
420 1 0.9 0.1 0.4
421 1 0 0.2 0.4
422 1 0.1 0.2 0.4
423 1 0.2 0.2 0.4
424 1 0.3 0.2 0.4
425 1 0.4 0.2 0.4
426 1 0.5 0.2 0.4
427 1 0.6 0.2 0.4
428 1 0.7 0.2 0.4
429 1 0.8 0.2 0.4
430 1 0.9 0.2 0.4
431 1 0 0.3 0.4
432 1 0.1 0.3 0.4
433 1 0.2 0.3 0.4
434 1 0.3 0.3 0.4
435 1 0.4 0.3 0.4
436 1 0.5 0.3 0.4
437 1 0.6 0.3 0.4
438 1 0.7 0.3 0.4
439 1 0.8 0.3 0.4
440 1 0.9 0.3 0.4
441 1 0 0.4 0.4
442 1 0.1 0.4 0.4
443 1 0.2 0.4 0.4
444 1 0.3 0.4 0.4
445 1 0.4 0.4 0.4
446 1 0.5 0.4 0.4
447 1 0.6 0.4 0.4
448 1 0.7 0.4 0.4
449 1 0.8 0.4 0.4
450 1 0.9 0.4 0.4
451 1 0 0.5 0.4
452 1 0.1 0.5 0.4
453 1 0.2 0.5 0.4
454 1 0.3 0.5 0.4
455 1 0.4 0.5 0.4
456 1 0.5 0.5 0.4
457 1 0.6 0.5 0.4
458 1 0.7 0.5 0.4
459 1 0.8 0.5 0.4
460 1 0.9 0.5 0.4
461 1 0 0.6 0.4
462 1 0.1 0.6 0.4
463 1 0.2 0.6 0.4
464 1 0.3 0.6 0.4
465 1 0.4 0.6 0.4
466 1 0.5 0.6 0.4
467 1 0.6 0.6 0.4
468 1 0.7 0.6 0.4
469 1 0.8 0.6 0.4
470 1 0.9 0.6 0.4
471 1 0 0.7 0.4
472 1 0.1 0.7 0.4
473 1 0.2 0.7 0.4
474 1 0.3 0.7 0.4
475 1 0.4 0.7 0.4
476 1 0.5 0.7 0.4
477 1 0.6 0.7 0.4
478 1 0.7 0.7 0.4
479 1 0.8 0.7 0.4
480 1 0.9 0.7 0.4
481 1 0 0.8 0.4
482 1 0.1 0.8 0.4
483 1 0.2 0.8 0.4
484 1 0.3 0.8 0.4
485 1 0.4 0.8 0.4
486 1 0.5 0.8 0.4
487 1 0.6 0.8 0.4
488 1 0.7 0.8 0.4
489 1 0.8 0.8 0.4
490 1 0.9 0.8 0.4
491 1 0 0.9 0.4
492 1 0.1 0.9 0.4
493 1 0.2 0.9 0.4
494 1 0.3 0.9 0.4
495 1 0.4 0.9 0.4
496 1 0.5 0.9 0.4
497 1 0.6 0.9 0.4
498 1 0.7 0.9 0.4
499 1 0.8 0.9 0.4
500 1 0.9 0.9 0.4
501 1 0 0 0.5
502 1 0.1 0 0.5
503 1 0.2 0 0.5
504 1 0.3 0 0.5
505 1 0.4 0 0.5
506 1 0.5 0 0.5
507 1 0.6 0 0.5
508 1 0.7 0 0.5
509 1 0.8 0 0.5
510 1 0.9 0 0.5
511 1 0 0.1 0.5
512 1 0.1 0.1 0.5
513 1 0.2 0.1 0.5
514 1 0.3 0.1 0.5
515 1 0.4 0.1 0.5
516 1 0.5 0.1 0.5
517 1 0.6 0.1 0.5
518 1 0.7 0.1 0.5
519 1 0.8 0.1 0.5
520 1 0.9 0.1 0.5
521 1 0 0.2 0.5
522 1 0.1 0.2 0.5
523 1 0.2 0.2 0.5
524 1 0.3 0.2 0.5
525 1 0.4 0.2 0.5
526 1 0.5 0.2 0.5
527 1 0.6 0.2 0.5
528 1 0.7 0.2 0.5
529 1 0.8 0.2 0.5
530 1 0.9 0.2 0.5
531 1 0 0.3 0.5
532 1 0.1 0.3 0.5
533 1 0.2 0.3 0.5
534 1 0.3 0.3 0.5
535 1 0.4 0.3 0.5
536 1 0.5 0.3 0.5
537 1 0.6 0.3 0.5
538 1 0.7 0.3 0.5
539 1 0.8 0.3 0.5
540 1 0.9 0.3 0.5
541 1 0 0.4 0.5
542 1 0.1 0.4 0.5
543 1 0.2 0.4 0.5
544 1 0.3 0.4 0.5
545 1 0.4 0.4 0.5
546 1 0.5 0.4 0.5
547 1 0.6 0.4 0.5
548 1 0.7 0.4 0.5
549 1 0.8 0.4 0.5
550 1 0.9 0.4 0.5
551 1 0 0.5 0.5
552 1 0.1 0.5 0.5
553 1 0.2 0.5 0.5
554 1 0.3 0.5 0.5
555 1 0.4 0.5 0.5
556 1 0.5 0.5 0.5
557 1 0.6 0.5 0.5
558 1 0.7 0.5 0.5
559 1 0.8 0.5 0.5
560 1 0.9 0.5 0.5
561 1 0 0.6 0.5
562 1 0.1 0.6 0.5
563 1 0.2 0.6 0.5
564 1 0.3 0.6 0.5
565 1 0.4 0.6 0.5
566 1 0.5 0.6 0.5
567 1 0.6 0.6 0.5
568 1 0.7 0.6 0.5
569 1 0.8 0.6 0.5
570 1 0.9 0.6 0.5
571 1 0 0.7 0.5
572 1 0.1 0.7 0.5
573 1 0.2 0.7 0.5
574 1 0.3 0.7 0.5
575 1 0.4 0.7 0.5
576 1 0.5 0.7 0.5
577 1 0.6 0.7 0.5
578 1 0.7 0.7 0.5
579 1 0.8 0.7 0.5
580 1 0.9 0.7 0.5
581 1 0 0.8 0.5
582 1 0.1 0.8 0.5
583 1 0.2 0.8 0.5
584 1 0.3 0.8 0.5
585 1 0.4 0.8 0.5
586 1 0.5 0.8 0.5
587 1 0.6 0.8 0.5
588 1 0.7 0.8 0.5
589 1 0.8 0.8 0.5
590 1 0.9 0.8 0.5
591 1 0 0.9 0.5
592 1 0.1 0.9 0.5
593 1 0.2 0.9 0.5
594 1 0.3 0.9 0.5
595 1 0.4 0.9 0.5
596 1 0.5 0.9 0.5
597 1 0.6 0.9 0.5
598 1 0.7 0.9 0.5
599 1 0.8 0.9 0.5
600 1 0.9 0.9 0.5
601 1 0 0 0.6
602 1 0.1 0 0.6
603 1 0.2 0 0.6
604 1 0.3 0 0.6
605 1 0.4 0 0.6
606 1 0.5 0 0.6
607 1 0.6 0 0.6
608 1 0.7 0 0.6
609 1 0.8 0 0.6
610 1 0.9 0 0.6
611 1 0 0.1 0.6
612 1 0.1 0.1 0.6
613 1 0.2 0.1 0.6
614 1 0.3 0.1 0.6
615 1 0.4 0.1 0.6
616 1 0.5 0.1 0.6
617 1 0.6 0.1 0.6
618 1 0.7 0.1 0.6
619 1 0.8 0.1 0.6
620 1 0.9 0.1 0.6
621 1 0 0.2 0.6
622 1 0.1 0.2 0.6
623 1 0.2 0.2 0.6
624 1 0.3 0.2 0.6
625 1 0.4 0.2 0.6
626 1 0.5 0.2 0.6
627 1 0.6 0.2 0.6
628 1 0.7 0.2 0.6
629 1 0.8 0.2 0.6
630 1 0.9 0.2 0.6
631 1 0 0.3 0.6
632 1 0.1 0.3 0.6
633 1 0.2 0.3 0.6
634 1 0.3 0.3 0.6
635 1 0.4 0.3 0.6
636 1 0.5 0.3 0.6
637 1 0.6 0.3 0.6
638 1 0.7 0.3 0.6
639 1 0.8 0.3 0.6
640 1 0.9 0.3 0.6
641 1 0 0.4 0.6
642 1 0.1 0.4 0.6
643 1 0.2 0.4 0.6
644 1 0.3 0.4 0.6
645 1 0.4 0.4 0.6
646 1 0.5 0.4 0.6
647 1 0.6 0.4 0.6
648 1 0.7 0.4 0.6
649 1 0.8 0.4 0.6
650 1 0.9 0.4 0.6
651 1 0 0.5 0.6
652 1 0.1 0.5 0.6
653 1 0.2 0.5 0.6
654 1 0.3 0.5 0.6
655 1 0.4 0.5 0.6
656 1 0.5 0.5 0.6
657 1 0.6 0.5 0.6
658 1 0.7 0.5 0.6
659 1 0.8 0.5 0.6
660 1 0.9 0.5 0.6
661 1 0 0.6 0.6
662 1 0.1 0.6 0.6
663 1 0.2 0.6 0.6
664 1 0.3 0.6 0.6
665 1 0.4 0.6 0.6
666 1 0.5 0.6 0.6
667 1 0.6 0.6 0.6
668 1 0.7 0.6 0.6
669 1 0.8 0.6 0.6
670 1 0.9 0.6 0.6
671 1 0 0.7 0.6
672 1 0.1 0.7 0.6
673 1 0.2 0.7 0.6
674 1 0.3 0.7 0.6
675 1 0.4 0.7 0.6
676 1 0.5 0.7 0.6
677 1 0.6 0.7 0.6
678 1 0.7 0.7 0.6
679 1 0.8 0.7 0.6
680 1 0.9 0.7 0.6
681 1 0 0.8 0.6
682 1 0.1 0.8 0.6
683 1 0.2 0.8 0.6
684 1 0.3 0.8 0.6
685 1 0.4 0.8 0.6
686 1 0.5 0.8 0.6
687 1 0.6 0.8 0.6
688 1 0.7 0.8 0.6
689 1 0.8 0.8 0.6
690 1 0.9 0.8 0.6
691 1 0 0.9 0.6
692 1 0.1 0.9 0.6
693 1 0.2 0.9 0.6
694 1 0.3 0.9 0.6
695 1 0.4 0.9 0.6
696 1 0.5 0.9 0.6
697 1 0.6 0.9 0.6
698 1 0.7 0.9 0.6
699 1 0.8 0.9 0.6
700 1 0.9 0.9 0.6
701 1 0 0 0.7
702 1 0.1 0 0.7
703 1 0.2 0 0.7
704 1 0.3 0 0.7
705 1 0.4 0 0.7
706 1 0.5 0 0.7
707 1 0.6 0 0.7
708 1 0.7 0 0.7
709 1 0.8 0 0.7
710 1 0.9 0 0.7
711 1 0 0.1 0.7
712 1 0.1 0.1 0.7
713 1 0.2 0.1 0.7
714 1 0.3 0.1 0.7
715 1 0.4 0.1 0.7
716 1 0.5 0.1 0.7
717 1 0.6 0.1 0.7
718 1 0.7 0.1 0.7
719 1 0.8 0.1 0.7
720 1 0.9 0.1 0.7
721 1 0 0.2 0.7
722 1 0.1 0.2 0.7
723 1 0.2 0.2 0.7
724 1 0.3 0.2 0.7
725 1 0.4 0.2 0.7
726 1 0.5 0.2 0.7
727 1 0.6 0.2 0.7
728 1 0.7 0.2 0.7
729 1 0.8 0.2 0.7
730 1 0.9 0.2 0.7
731 1 0 0.3 0.7
732 1 0.1 0.3 0.7
733 1 0.2 0.3 0.7
734 1 0.3 0.3 0.7
735 1 0.4 0.3 0.7
736 1 0.5 0.3 0.7
737 1 0.6 0.3 0.7
738 1 0.7 0.3 0.7
739 1 0.8 0.3 0.7
740 1 0.9 0.3 0.7
741 1 0 0.4 0.7
742 1 0.1 0.4 0.7
743 1 0.2 0.4 0.7
744 1 0.3 0.4 0.7
745 1 0.4 0.4 0.7
746 1 0.5 0.4 0.7
747 1 0.6 0.4 0.7
748 1 0.7 0.4 0.7
749 1 0.8 0.4 0.7
750 1 0.9 0.4 0.7
751 1 0 0.5 0.7
752 1 0.1 0.5 0.7
753 1 0.2 0.5 0.7
754 1 0.3 0.5 0.7
755 1 0.4 0.5 0.7
756 1 0.5 0.5 0.7
757 1 0.6 0.5 0.7
758 1 0.7 0.5 0.7
759 1 0.8 0.5 0.7
760 1 0.9 0.5 0.7
761 1 0 0.6 0.7
762 1 0.1 0.6 0.7
763 1 0.2 0.6 0.7
764 1 0.3 0.6 0.7
765 1 0.4 0.6 0.7
766 1 0.5 0.6 0.7
767 1 0.6 0.6 0.7
768 1 0.7 0.6 0.7
769 1 0.8 0.6 0.7
770 1 0.9 0.6 0.7
771 1 0 0.7 0.7
772 1 0.1 0.7 0.7
773 1 0.2 0.7 0.7
774 1 0.3 0.7 0.7
775 1 0.4 0.7 0.7
776 1 0.5 0.7 0.7
777 1 0.6 0.7 0.7
778 1 0.7 0.7 0.7
779 1 0.8 0.7 0.7
780 1 0.9 0.7 0.7
781 1 0 0.8 0.7
782 1 0.1 0.8 0.7
783 1 0.2 0.8 0.7
784 1 0.3 0.8 0.7
785 1 0.4 0.8 0.7
786 1 0.5 0.8 0.7
787 1 0.6 0.8 0.7
788 1 0.7 0.8 0.7
789 1 0.8 0.8 0.7
790 1 0.9 0.8 0.7
791 1 0 0.9 0.7
792 1 0.1 0.9 0.7
793 1 0.2 0.9 0.7
794 1 0.3 0.9 0.7
795 1 0.4 0.9 0.7
796 1 0.5 0.9 0.7
797 1 0.6 0.9 0.7
798 1 0.7 0.9 0.7
799 1 0.8 0.9 0.7
800 1 0.9 0.9 0.7
801 1 0 0 0.8
802 1 0.1 0 0.8
803 1 0.2 0 0.8
804 1 0.3 0 0.8
805 1 0.4 0 0.8
806 1 0.5 0 0.8
807 1 0.6 0 0.8
808 1 0.7 0 0.8
809 1 0.8 0 0.8
810 1 0.9 0 0.8
811 1 0 0.1 0.8
812 1 0.1 0.1 0.8
813 1 0.2 0.1 0.8
814 1 0.3 0.1 0.8
815 1 0.4 0.1 0.8
816 1 0.5 0.1 0.8
817 1 0.6 0.1 0.8
818 1 0.7 0.1 0.8
819 1 0.8 0.1 0.8
820 1 0.9 0.1 0.8
821 1 0 0.2 0.8
822 1 0.1 0.2 0.8
823 1 0.2 0.2 0.8
824 1 0.3 0.2 0.8
825 1 0.4 0.2 0.8
826 1 0.5 0.2 0.8
827 1 0.6 0.2 0.8
828 1 0.7 0.2 0.8
829 1 0.8 0.2 0.8
830 1 0.9 0.2 0.8
831 1 0 0.3 0.8
832 1 0.1 0.3 0.8
833 1 0.2 0.3 0.8
834 1 0.3 0.3 0.8
835 1 0.4 0.3 0.8
836 1 0.5 0.3 0.8
837 1 0.6 0.3 0.8
838 1 0.7 0.3 0.8
839 1 0.8 0.3 0.8
840 1 0.9 0.3 0.8
841 1 0 0.4 0.8
842 1 0.1 0.4 0.8
843 1 0.2 0.4 0.8
844 1 0.3 0.4 0.8
845 1 0.4 0.4 0.8
846 1 0.5 0.4 0.8
847 1 0.6 0.4 0.8
848 1 0.7 0.4 0.8
849 1 0.8 0.4 0.8
850 1 0.9 0.4 0.8
851 1 0 0.5 0.8
852 1 0.1 0.5 0.8
853 1 0.2 0.5 0.8
854 1 0.3 0.5 0.8
855 1 0.4 0.5 0.8
856 1 0.5 0.5 0.8
857 1 0.6 0.5 0.8
858 1 0.7 0.5 0.8
859 1 0.8 0.5 0.8
860 1 0.9 0.5 0.8
861 1 0 0.6 0.8
862 1 0.1 0.6 0.8
863 1 0.2 0.6 0.8
864 1 0.3 0.6 0.8
865 1 0.4 0.6 0.8
866 1 0.5 0.6 0.8
867 1 0.6 0.6 0.8
868 1 0.7 0.6 0.8
869 1 0.8 0.6 0.8
870 1 0.9 0.6 0.8
871 1 0 0.7 0.8
872 1 0.1 0.7 0.8
873 1 0.2 0.7 0.8
874 1 0.3 0.7 0.8
875 1 0.4 0.7 0.8
876 1 0.5 0.7 0.8
877 1 0.6 0.7 0.8
878 1 0.7 0.7 0.8
879 1 0.8 0.7 0.8
880 1 0.9 0.7 0.8
881 1 0 0.8 0.8
882 1 0.1 0.8 0.8
883 1 0.2 0.8 0.8
884 1 0.3 0.8 0.8
885 1 0.4 0.8 0.8
886 1 0.5 0.8 0.8
887 1 0.6 0.8 0.8
888 1 0.7 0.8 0.8
889 1 0.8 0.8 0.8
890 1 0.9 0.8 0.8
891 1 0 0.9 0.8
892 1 0.1 0.9 0.8
893 1 0.2 0.9 0.8
894 1 0.3 0.9 0.8
895 1 0.4 0.9 0.8
896 1 0.5 0.9 0.8
897 1 0.6 0.9 0.8
898 1 0.7 0.9 0.8
899 1 0.8 0.9 0.8
900 1 0.9 0.9 0.8
901 1 0 0 0.9
902 1 0.1 0 0.9
903 1 0.2 0 0.9
904 1 0.3 0 0.9
905 1 0.4 0 0.9
906 1 0.5 0 0.9
907 1 0.6 0 0.9
908 1 0.7 0 0.9
909 1 0.8 0 0.9
910 1 0.9 0 0.9
911 1 0 0.1 0.9
912 1 0.1 0.1 0.9
913 1 0.2 0.1 0.9
914 1 0.3 0.1 0.9
915 1 0.4 0.1 0.9
916 1 0.5 0.1 0.9
917 1 0.6 0.1 0.9
918 1 0.7 0.1 0.9
919 1 0.8 0.1 0.9
920 1 0.9 0.1 0.9
921 1 0 0.2 0.9
922 1 0.1 0.2 0.9
923 1 0.2 0.2 0.9
924 1 0.3 0.2 0.9
925 1 0.4 0.2 0.9
926 1 0.5 0.2 0.9
927 1 0.6 0.2 0.9
928 1 0.7 0.2 0.9
929 1 0.8 0.2 0.9
930 1 0.9 0.2 0.9
931 1 0 0.3 0.9
932 1 0.1 0.3 0.9
933 1 0.2 0.3 0.9
934 1 0.3 0.3 0.9
935 1 0.4 0.3 0.9
936 1 0.5 0.3 0.9
937 1 0.6 0.3 0.9
938 1 0.7 0.3 0.9
939 1 0.8 0.3 0.9
940 1 0.9 0.3 0.9
941 1 0 0.4 0.9
942 1 0.1 0.4 0.9
943 1 0.2 0.4 0.9
944 1 0.3 0.4 0.9
945 1 0.4 0.4 0.9
946 1 0.5 0.4 0.9
947 1 0.6 0.4 0.9
948 1 0.7 0.4 0.9
949 1 0.8 0.4 0.9
950 1 0.9 0.4 0.9
951 1 0 0.5 0.9
952 1 0.1 0.5 0.9
953 1 0.2 0.5 0.9
954 1 0.3 0.5 0.9
955 1 0.4 0.5 0.9
956 1 0.5 0.5 0.9
957 1 0.6 0.5 0.9
958 1 0.7 0.5 0.9
959 1 0.8 0.5 0.9
960 1 0.9 0.5 0.9
961 1 0 0.6 0.9
962 1 0.1 0.6 0.9
963 1 0.2 0.6 0.9
964 1 0.3 0.6 0.9
965 1 0.4 0.6 0.9
966 1 0.5 0.6 0.9
967 1 0.6 0.6 0.9
968 1 0.7 0.6 0.9
969 1 0.8 0.6 0.9
970 1 0.9 0.6 0.9
971 1 0 0.7 0.9
972 1 0.1 0.7 0.9
973 1 0.2 0.7 0.9
974 1 0.3 0.7 0.9
975 1 0.4 0.7 0.9
976 1 0.5 0.7 0.9
977 1 0.6 0.7 0.9
978 1 0.7 0.7 0.9
979 1 0.8 0.7 0.9
980 1 0.9 0.7 0.9
981 1 0 0.8 0.9
982 1 0.1 0.8 0.9
983 1 0.2 0.8 0.9
984 1 0.3 0.8 0.9
985 1 0.4 0.8 0.9
986 1 0.5 0.8 0.9
987 1 0.6 0.8 0.9
988 1 0.7 0.8 0.9
989 1 0.8 0.8 0.9
990 1 0.9 0.8 0.9
991 1 0 0.9 0.9
992 1 0.1 0.9 0.9
993 1 0.2 0.9 0.9
994 1 0.3 0.9 0.9
995 1 0.4 0.9 0.9
996 1 0.5 0.9 0.9
997 1 0.6 0.9 0.9
998 1 0.7 0.9 0.9
999 1 0.8 0.9 0.9
1000 1 0.9 0.9 0.9
ITEM: TIMESTEP
5000
ITEM: NUMBER OF ATOMS
1000
ITEM: BOX BOUNDS pp pp pp
0.0000000000000000e+00 1.1006424162982089e+01
0.0000000000000000e+00 1.1006424162982089e+01
0.0000000000000000e+00 1.1006424162982089e+01
ITEM: ATOMS id type xs ys zs
2 1 0.117523 0.0173058 0.0121828
4 1 0.315883 0.0157502 0.00651476
9 1 0.827889 -0.00303133 0.0121364
13 1 0.188542 0.0935239 0.0268352
15 1 0.378377 0.0927888 0.0136722
17 1 0.578731 0.0810868 0.0203033
20 1 0.877951 0.0863235 0.0127404
11 1 0.977957 0.0887237 0.00687084
23 1 0.205815 0.194006 0.00483659
22 1 0.104963 0.230089 0.0118727
29 1 0.802171 0.217617 0.00624305
31 1 0.0255511 0.294465 0.0146394
32 1 0.116512 0.330041 0.0114193
34 1 0.317177 0.30926 0.0327319
35 1 0.418525 0.293699 0.00805722
36 1 0.518932 0.306257 0.0113277
38 1 0.719488 0.294461 0.00659222
39 1 0.814962 0.317417 0.999802
48 1 0.683039 0.385139 0.0128161
41 1 0.979093 0.391354 0.0238679
42 1 0.0783757 0.426031 0.00215313
49 1 0.783514 0.415668 0.0166687
51 1 0.00465481 0.497551 0.000622996
54 1 0.312416 0.513691 0.0213314
55 1 0.41589 0.494929 0.998845
57 1 0.611159 0.489044 0.0221845
59 1 0.815642 0.511922 0.0168051
60 1 0.908447 0.486541 0.00736092
66 1 0.494616 0.588287 0.0177813
68 1 0.70574 0.597655 0.0139322
70 1 0.898211 0.587584 0.0280805
62 1 0.102621 0.617202 0.0306003
63 1 0.196007 0.597943 -5.9555e-05
64 1 0.292052 0.617313 0.0209443
72 1 0.105792 0.715701 0.0132074
173 1 0.216764 0.708335 0.0636507
76 1 0.494484 0.69708 0.00418623
80 1 0.904678 0.687275 0.00838467
83 1 0.214051 0.796476 0.00748914
88 1 0.713904 0.798942 0.00449377
84 1 0.311373 0.826417 -0.00408654
85 1 0.409756 0.805725 0.0260493
89 1 0.809061 0.820504 0.016813
93 1 0.177177 0.895639 0.00612813
95 1 0.376276 0.902515 0.00560221
97 1 0.574246 0.889664 0.00752517
99 1 0.767351 0.910986 0.0216237
100 1 0.871523 0.899191 0.00900488
10 1 0.923965 0.988782 0.00263472
101 1 0.0111906 0.0145299 0.0773241
103 1 0.207621 0.0147905 0.085556
105 1 0.417541 0.00114871 0.0926804
106 1 0.522931 0.00686811 0.099568
107 1 0.623061 0.00722006 0.0881019
108 1 0.719449 0.0320755 0.0922011
110 1 0.907833 0.0184834 0.102425
112 1 0.104366 0.0795198 0.0901792
113 1 0.200674 0.1215 0.121787
114 1 0.300178 0.0805005 0.0840298
115 1 0.400214 0.0976115 0.108533
116 1 0.510606 0.114176 0.087469
117 1 0.612535 0.102749 0.112475
118 1 0.709998 0.130489 0.0953869
119 1 0.810618 0.0820915 0.0939377
120 1 0.902669 0.123485 0.105588
111 1 0.0120956 0.113707 0.109737
122 1 0.126499 0.184218 0.10295
124 1 0.325026 0.179763 0.0780886
129 1 0.81393 0.179139 0.108349
121 1 0.016047 0.213148 0.0934284
123 1 0.225662 0.219023 0.0985355
125 1 0.42889 0.20994 0.0782619
126 1 0.528134 0.221094 0.0864769
127 1 0.625889 0.201369 0.0776423
128 1 0.729116 0.225188 0.078741
130 1 0.915474 0.228461 0.0894452
132 1 0.0790863 0.289222 0.100024
133 1 0.172608 0.327641 0.0892501
134 1 0.272291 0.308078 0.123281
135 1 0.375082 0.305055 0.111375
136 1 0.483124 0.309043 0.116678
137 1 0.58896 0.31156 0.0822364
138 1 0.694514 0.324952 0.107207
139 1 0.804637 0.280025 0.100454
140 1 0.886243 0.329698 0.0810723
131 1 0.981633 0.30948 0.104912
142 1 0.09756 0.399953 0.10477
144 1 0.298503 0.398901 0.0793278
149 1 0.7881 0.384972 0.111516
143 1 0.197667 0.421296 0.0782102
145 1 0.403383 0.399732 0.103109
146 1 0.506518 0.406005 0.0676777
147 1 0.598393 0.411986 0.103217
148 1 0.701021 0.430119 0.106666
150 1 0.890218 0.426211 0.0858696
141 1 0.998598 0.418186 0.129545
152 1 0.0822084 0.499624 0.07666
153 1 0.179073 0.520875 0.0776649
154 1 0.266231 0.489792 0.116027
155 1 0.378166 0.498074 0.0989763
156 1 0.477453 0.508657 0.0782707
157 1 0.571191 0.510583 0.116526
158 1 0.693634 0.523583 0.0749969
159 1 0.793956 0.487083 0.125457
160 1 0.879569 0.530509 0.132373
151 1 0.978387 0.512367 0.0987576
162 1 0.126849 0.582358 0.133138
164 1 0.315953 0.574633 0.127023
165 1 0.42033 0.598546 0.0904922
166 1 0.52315 0.600607 0.122534
169 1 0.799047 0.582141 0.0913191
161 1 0.0235824 0.602514 0.0934062
163 1 0.223851 0.614575 0.0971703
167 1 0.614451 0.609285 0.0878263
168 1 0.709152 0.636254 0.122292
170 1 0.924165 0.624887 0.116611
171 1 0.0118686 0.707339 0.0828922
172 1 0.105642 0.676383 0.109511
174 1 0.311156 0.674735 0.105002
175 1 0.419028 0.701738 0.0954312
176 1 0.520659 0.70451 0.100955
177 1 0.618259 0.71108 0.0746496
178 1 0.723834 0.72324 0.0670313
179 1 0.826845 0.679323 0.0706547
180 1 0.913893 0.727445 0.0986072
182 1 0.0904509 0.783212 0.0892969
184 1 0.296872 0.770464 0.103365
185 1 0.399126 0.798877 0.128842
189 1 0.805939 0.771058 0.113077
183 1 0.201462 0.814652 0.109832
186 1 0.497422 0.805577 0.0801568
187 1 0.593392 0.805308 0.106885
188 1 0.694705 0.827235 0.103011
190 1 0.890774 0.824988 0.0843662
181 1 0.985894 0.805301 0.104236
192 1 0.07996 0.879868 0.101499
193 1 0.182811 0.911894 0.105978
194 1 0.274235 0.871433 0.0824618
195 1 0.38524 0.901687 0.109976
196 1 0.484145 0.906961 0.0854836
197 1 0.588598 0.910873 0.106358
198 1 0.685197 0.92816 0.0770229
199 1 0.792168 0.868416 0.121989
200 1 0.881913 0.924401 0.102917
191 1 0.985602 0.9135 0.0776777
102 1 0.110874 0.983553 0.120972
104 1 0.316117 0.978242 0.0973475
109 1 0.793231 0.96978 0.12437
203 1 0.207002 0.012432 0.194901
208 1 0.712218 0.995442 0.193696
212 1 0.109603 0.0838815 0.199714
214 1 0.308295 0.124379 0.181331
216 1 0.502927 0.118284 0.195229
218 1 0.699735 0.105184 0.196853
219 1 0.809266 0.117881 0.189752
225 1 0.402321 0.17064 0.176615
227 1 0.592776 0.181881 0.178938
230 1 0.891133 0.171962 0.19325
224 1 0.306751 0.226972 0.175694
226 1 0.495282 0.220455 0.185184
228 1 0.698006 0.207996 0.172264
221 1 0.992532 0.198155 0.195599
233 1 0.201416 0.321002 0.188174
237 1 0.595753 0.281616 0.184166
239 1 0.811041 0.319986 0.19308
240 1 0.90161 0.274219 0.180517
245 1 0.395943 0.367232 0.201464
250 1 0.894383 0.374869 0.174911
243 1 0.195831 0.42335 0.182104
244 1 0.308408 0.42013 0.190956
246 1 0.486747 0.41364 0.173856
252 1 0.0893659 0.494689 0.178154
253 1 0.19976 0.525366 0.18858
255 1 0.397733 0.468777 0.193204
256 1 0.492861 0.520176 0.177938
258 1 0.695334 0.512772 0.176766
265 1 0.395121 0.574687 0.186927
267 1 0.603886 0.583436 0.183768
263 1 0.188192 0.627577 0.196091
269 1 0.802698 0.620616 0.184407
261 1 0.989804 0.601403 0.190462
273 1 0.184241 0.725956 0.153322
274 1 0.279068 0.727281 0.194957
275 1 0.368094 0.687266 0.18341
277 1 0.565967 0.68332 0.190734
278 1 0.668672 0.711783 0.165599
279 1 0.764721 0.717151 0.188487
271 1 0.975631 0.70246 0.17921
282 1 0.111957 0.783176 0.200575
290 1 0.913141 0.77977 0.188427
286 1 0.510652 0.808389 0.181304
294 1 0.296228 0.923349 0.181528
296 1 0.489908 0.909943 0.191597
298 1 0.690936 0.896271 0.173368
300 1 0.879127 0.876776 0.18733
291 1 0.978978 0.897416 0.198938
201 1 0.00616173 0.997909 0.177194
205 1 0.405234 0.972239 0.192787
207 1 0.600565 0.975682 0.187039
204 1 0.31007 0.0242277 0.205538
206 1 0.501222 0.0177923 0.218622
209 1 0.813613 0.0163663 0.209781
211 1 0.00682019 0.094573 0.211501
213 1 0.208946 0.110973 0.225294
215 1 0.40247 0.0708262 0.216626
217 1 0.604303 0.0797804 0.231835
220 1 0.902171 0.0713701 0.223266
222 1 0.107113 0.187959 0.203522
223 1 0.205418 0.215421 0.208673
229 1 0.803167 0.222677 0.222811
231 1 0.00058478 0.300184 0.204841
232 1 0.110551 0.288871 0.217803
234 1 0.305794 0.321839 0.21665
235 1 0.399003 0.263998 0.212928
236 1 0.494966 0.322125 0.224515
238 1 0.701805 0.302234 0.217763
242 1 0.0979166 0.396381 0.204485
247 1 0.589271 0.382284 0.198732
248 1 0.687891 0.406406 0.208569
249 1 0.806159 0.419649 0.210626
241 1 0.00488911 0.400566 0.228013
254 1 0.304004 0.524455 0.20973
257 1 0.590724 0.484543 0.220984
259 1 0.786558 0.519748 0.219607
260 1 0.895964 0.468279 0.216137
251 1 0.989721 0.499179 0.199448
262 1 0.0878367 0.590954 0.224915
270 1 0.896371 0.571513 0.215363
264 1 0.284808 0.622157 0.212178
266 1 0.492188 0.613353 0.22158
268 1 0.694723 0.612723 0.220829
272 1 0.0642997 0.697422 0.222387
276 1 0.46474 0.703325 0.193353
280 1 0.878971 0.678098 0.20946
281 1 0.0122042 0.796408 0.203974
285 1 0.401135 0.774465 0.236773
287 1 0.610543 0.777184 0.209559
283 1 0.215699 0.812726 0.209271
284 1 0.317701 0.821259 0.197559
288 1 0.716684 0.801381 0.211145
289 1 0.816129 0.807578 0.226196
292 1 0.09209 0.88083 0.209357
293 1 0.190544 0.911978 0.215662
295 1 0.402794 0.874051 0.221482
297 1 0.593098 0.876874 0.225039
299 1 0.789962 0.921136 0.210144
202 1 0.104645 0.981194 0.218521
210 1 0.907565 0.972222 0.203111
302 1 0.0662172 0.0292691 0.300811
301 1 0.962992 0.0189179 0.274969
312 1 0.0952064 0.126885 0.295775
313 1 0.193051 0.0914347 0.324768
314 1 0.291058 0.0920106 0.279124
315 1 0.383026 0.0775601 0.322992
316 1 0.485924 0.0900295 0.294089
317 1 0.59039 0.0668609 0.332433
318 1 0.684826 0.106208 0.302128
319 1 0.78065 0.0807856 0.280948
320 1 0.881899 0.0974634 0.31657
311 1 0.985115 0.12811 0.309646
323 1 0.18147 0.186571 0.315451
324 1 0.274617 0.193645 0.274401
325 1 0.389063 0.179882 0.275216
326 1 0.492027 0.199983 0.293011
327 1 0.591424 0.166528 0.27856
329 1 0.775612 0.175284 0.322794
330 1 0.875563 0.195737 0.289596
322 1 0.0851631 0.230053 0.311111
328 1 0.688572 0.206231 0.273199
321 1 0.97974 0.229413 0.304798
331 1 0.0068893 0.33152 0.312528
332 1 0.116568 0.322862 0.314433
333 1 0.207565 0.283485 0.2898
334 1 0.30004 0.283236 0.330564
335 1 0.40922 0.284073 0.311798
336 1 0.511419 0.30235 0.323894
337 1 0.607591 0.267276 0.290216
338 1 0.70516 0.30466 0.319081
339 1 0.807229 0.288794 0.296152
340 1 0.91194 0.294986 0.283982
343 1 0.228719 0.397159 0.280597
344 1 0.329951 0.406986 0.285662
345 1 0.434241 0.387328 0.297968
346 1 0.533293 0.398782 0.276376
347 1 0.628512 0.371031 0.306535
349 1 0.828656 0.385982 0.31377
341 1 0.0289232 0.429173 0.32686
342 1 0.126494 0.421787 0.301688
348 1 0.728513 0.406472 0.312134
350 1 0.921944 0.402556 0.287798
352 1 0.0747925 0.508166 0.284527
353 1 0.182631 0.501986 0.291436
354 1 0.280251 0.487772 0.319987
355 1 0.379918 0.489872 0.291028
356 1 0.488055 0.493751 0.276918
357 1 0.584687 0.486825 0.336159
358 1 0.67551 0.490755 0.275211
359 1 0.774506 0.494884 0.315502
360 1 0.871165 0.495914 0.311085
351 1 0.978352 0.516159 0.29925
363 1 0.221148 0.593013 0.29662
364 1 0.321995 0.584682 0.307722
365 1 0.421509 0.58037 0.295173
366 1 0.525081 0.591627 0.31677
367 1 0.616877 0.573076 0.284165
369 1 0.820196 0.592425 0.283768
370 1 0.913294 0.598094 0.317935
361 1 0.0216374 0.627994 0.289064
362 1 0.116878 0.613833 0.327804
368 1 0.723906 0.604781 0.32415
372 1 0.0933668 0.710781 0.317757
373 1 0.177945 0.703867 0.260451
374 1 0.277034 0.683949 0.28951
375 1 0.380881 0.679633 0.28474
376 1 0.483989 0.686981 0.30961
377 1 0.585248 0.668062 0.286295
378 1 0.691143 0.702125 0.261844
379 1 0.79164 0.684459 0.285613
380 1 0.893688 0.692995 0.308806
371 1 0.987731 0.729144 0.286211
383 1 0.214572 0.797403 0.311653
384 1 0.316201 0.793502 0.302797
385 1 0.411273 0.784148 0.335384
386 1 0.509649 0.78416 0.287231
387 1 0.60759 0.778547 0.31533
388 1 0.716207 0.800665 0.313237
389 1 0.817599 0.777118 0.31962
390 1 0.910125 0.793318 0.289924
381 1 0.0129641 0.825944 0.306185
382 1 0.113667 0.81793 0.29416
391 1 0.0149859 0.933062 0.289145
392 1 0.111815 0.916387 0.322253
393 1 0.221994 0.902744 0.313658
394 1 0.320347 0.895198 0.276565
395 1 0.420886 0.885152 0.323291
396 1 0.517639 0.884676 0.289643
397 1 0.627632 0.880404 0.321257
398 1 0.720426 0.895391 0.276693
399 1 0.82079 0.88234 0.324397
400 1 0.918343 0.901709 0.290412
303 1 0.166798 1.00001 0.296478
304 1 0.265522 0.989177 0.302913
305 1 0.36374 0.986016 0.29036
306 1 0.469575 0.977959 0.306044
307 1 0.569102 0.976221 0.291882
308 1 0.668182 0.99727 0.292823
309 1 0.76634 0.982743 0.313053
310 1 0.867729 0.99496 0.30328
403 1 0.223196 0.0181503 0.393199
405 1 0.417342 0.0127076 0.39244
408 1 0.719412 0.0140263 0.405829
410 1 0.912427 0.0310559 0.390051
412 1 0.110219 0.0711783 0.389411
414 1 0.296917 0.088539 0.390367
416 1 0.498841 0.129972 0.396352
419 1 0.810329 0.0762072 0.384009
424 1 0.287067 0.192478 0.377521
427 1 0.593981 0.177915 0.378734
421 1 0.991726 0.182319 0.397159
425 1 0.389572 0.203502 0.374022
426 1 0.484415 0.230581 0.395537
428 1 0.703302 0.220661 0.375408
430 1 0.889725 0.230481 0.378701
433 1 0.195467 0.331907 0.378871
437 1 0.57954 0.282992 0.392998
439 1 0.78434 0.276136 0.395322
440 1 0.896018 0.339107 0.375111
444 1 0.312933 0.382645 0.379506
443 1 0.220586 0.429052 0.378374