LAMMPS (4 Feb 2025 - Development - patch_4Feb2025-313-gd544b4249b-modified)
KOKKOS mode with Kokkos version 4.5.1 is enabled (src/KOKKOS/kokkos.cpp:72)
  using 1 OpenMP thread(s) per MPI task
WARNING: Atom style hybrid defines both, per-type and per-atom masses; both must be set, but only per-atom masses will be used (src/atom_vec_hybrid.cpp:132)
Lattice spacing in x,y,z = 2.5198421 2.5198421 2.5198421
Created orthogonal box = (0 0 0) to (50.396842 50.396842 50.396842)
  1 by 1 by 1 MPI processor grid
Created 16800 atoms
  using lattice units in orthogonal box = (0 0 0) to (50.396842 50.396842 50.396842)
  create_atoms CPU = 0.131 seconds
Created 16000 atoms
  using lattice units in orthogonal box = (0 0 0) to (50.396842 50.396842 50.396842)
  create_atoms CPU = 0.091 seconds
Created 1 atoms
  using lattice units in orthogonal box = (0 0 0) to (50.396842 50.396842 50.396842)
  create_atoms CPU = 0.003 seconds
Created 1 atoms
  using lattice units in orthogonal box = (0 0 0) to (50.396842 50.396842 50.396842)
  create_atoms CPU = 0.002 seconds
Created 1 atoms
  using lattice units in orthogonal box = (0 0 0) to (50.396842 50.396842 50.396842)
  create_atoms CPU = 0.002 seconds
Created 1 atoms
  using lattice units in orthogonal box = (0 0 0) to (50.396842 50.396842 50.396842)
  create_atoms CPU = 0.002 seconds
Created 1 atoms
  using lattice units in orthogonal box = (0 0 0) to (50.396842 50.396842 50.396842)
  create_atoms CPU = 0.002 seconds
Created 1 atoms
  using lattice units in orthogonal box = (0 0 0) to (50.396842 50.396842 50.396842)
  create_atoms CPU = 0.002 seconds
Created 1 atoms
  using lattice units in orthogonal box = (0 0 0) to (50.396842 50.396842 50.396842)
  create_atoms CPU = 0.003 seconds
Created 1 atoms
  using lattice units in orthogonal box = (0 0 0) to (50.396842 50.396842 50.396842)
  create_atoms CPU = 0.002 seconds
Created 1 atoms
  using lattice units in orthogonal box = (0 0 0) to (50.396842 50.396842 50.396842)
  create_atoms CPU = 0.002 seconds
Created 1 atoms
  using lattice units in orthogonal box = (0 0 0) to (50.396842 50.396842 50.396842)
  create_atoms CPU = 0.002 seconds
Created 1 atoms
  using lattice units in orthogonal box = (0 0 0) to (50.396842 50.396842 50.396842)
  create_atoms CPU = 0.002 seconds
Created 1 atoms
  using lattice units in orthogonal box = (0 0 0) to (50.396842 50.396842 50.396842)
  create_atoms CPU = 0.002 seconds
Created 1 atoms
  using lattice units in orthogonal box = (0 0 0) to (50.396842 50.396842 50.396842)
  create_atoms CPU = 0.002 seconds
Created 1 atoms
  using lattice units in orthogonal box = (0 0 0) to (50.396842 50.396842 50.396842)
  create_atoms CPU = 0.002 seconds
Created 1 atoms
  using lattice units in orthogonal box = (0 0 0) to (50.396842 50.396842 50.396842)
  create_atoms CPU = 0.002 seconds
Created 1 atoms
  using lattice units in orthogonal box = (0 0 0) to (50.396842 50.396842 50.396842)
  create_atoms CPU = 0.002 seconds
Created 1 atoms
  using lattice units in orthogonal box = (0 0 0) to (50.396842 50.396842 50.396842)
  create_atoms CPU = 0.002 seconds
Created 1 atoms
  using lattice units in orthogonal box = (0 0 0) to (50.396842 50.396842 50.396842)
  create_atoms CPU = 0.002 seconds
Created 1 atoms
  using lattice units in orthogonal box = (0 0 0) to (50.396842 50.396842 50.396842)
  create_atoms CPU = 0.002 seconds
Created 1 atoms
  using lattice units in orthogonal box = (0 0 0) to (50.396842 50.396842 50.396842)
  create_atoms CPU = 0.002 seconds
Created 1 atoms
  using lattice units in orthogonal box = (0 0 0) to (50.396842 50.396842 50.396842)
  create_atoms CPU = 0.002 seconds
Created 1 atoms
  using lattice units in orthogonal box = (0 0 0) to (50.396842 50.396842 50.396842)
  create_atoms CPU = 0.002 seconds
Created 1 atoms
  using lattice units in orthogonal box = (0 0 0) to (50.396842 50.396842 50.396842)
  create_atoms CPU = 0.002 seconds
Created 1 atoms
  using lattice units in orthogonal box = (0 0 0) to (50.396842 50.396842 50.396842)
  create_atoms CPU = 0.003 seconds
Created 1 atoms
  using lattice units in orthogonal box = (0 0 0) to (50.396842 50.396842 50.396842)
  create_atoms CPU = 0.002 seconds
Created 1 atoms
  using lattice units in orthogonal box = (0 0 0) to (50.396842 50.396842 50.396842)
  create_atoms CPU = 0.002 seconds
Created 1 atoms
  using lattice units in orthogonal box = (0 0 0) to (50.396842 50.396842 50.396842)
  create_atoms CPU = 0.002 seconds
Created 1 atoms
  using lattice units in orthogonal box = (0 0 0) to (50.396842 50.396842 50.396842)
  create_atoms CPU = 0.002 seconds
Created 1 atoms
  using lattice units in orthogonal box = (0 0 0) to (50.396842 50.396842 50.396842)
  create_atoms CPU = 0.002 seconds
Created 1 atoms
  using lattice units in orthogonal box = (0 0 0) to (50.396842 50.396842 50.396842)
  create_atoms CPU = 0.002 seconds
Created 1 atoms
  using lattice units in orthogonal box = (0 0 0) to (50.396842 50.396842 50.396842)
  create_atoms CPU = 0.002 seconds
Created 1 atoms
  using lattice units in orthogonal box = (0 0 0) to (50.396842 50.396842 50.396842)
  create_atoms CPU = 0.002 seconds
Created 1 atoms
  using lattice units in orthogonal box = (0 0 0) to (50.396842 50.396842 50.396842)
  create_atoms CPU = 0.003 seconds
Created 1 atoms
  using lattice units in orthogonal box = (0 0 0) to (50.396842 50.396842 50.396842)
  create_atoms CPU = 0.002 seconds
Created 1 atoms
  using lattice units in orthogonal box = (0 0 0) to (50.396842 50.396842 50.396842)
  create_atoms CPU = 0.002 seconds
Created 1 atoms
  using lattice units in orthogonal box = (0 0 0) to (50.396842 50.396842 50.396842)
  create_atoms CPU = 0.002 seconds
Created 1 atoms
  using lattice units in orthogonal box = (0 0 0) to (50.396842 50.396842 50.396842)
  create_atoms CPU = 0.002 seconds
Created 1 atoms
  using lattice units in orthogonal box = (0 0 0) to (50.396842 50.396842 50.396842)
  create_atoms CPU = 0.002 seconds
Created 1 atoms
  using lattice units in orthogonal box = (0 0 0) to (50.396842 50.396842 50.396842)
  create_atoms CPU = 0.002 seconds
Created 1 atoms
  using lattice units in orthogonal box = (0 0 0) to (50.396842 50.396842 50.396842)
  create_atoms CPU = 0.002 seconds
Created 1 atoms
  using lattice units in orthogonal box = (0 0 0) to (50.396842 50.396842 50.396842)
  create_atoms CPU = 0.002 seconds
Created 1 atoms
  using lattice units in orthogonal box = (0 0 0) to (50.396842 50.396842 50.396842)
  create_atoms CPU = 0.003 seconds
Created 1 atoms
  using lattice units in orthogonal box = (0 0 0) to (50.396842 50.396842 50.396842)
  create_atoms CPU = 0.002 seconds
Created 1 atoms
  using lattice units in orthogonal box = (0 0 0) to (50.396842 50.396842 50.396842)
  create_atoms CPU = 0.002 seconds
Created 1 atoms
  using lattice units in orthogonal box = (0 0 0) to (50.396842 50.396842 50.396842)
  create_atoms CPU = 0.002 seconds
Created 1 atoms
  using lattice units in orthogonal box = (0 0 0) to (50.396842 50.396842 50.396842)
  create_atoms CPU = 0.002 seconds
Created 1 atoms
  using lattice units in orthogonal box = (0 0 0) to (50.396842 50.396842 50.396842)
  create_atoms CPU = 0.002 seconds
Created 1 atoms
  using lattice units in orthogonal box = (0 0 0) to (50.396842 50.396842 50.396842)
  create_atoms CPU = 0.002 seconds
Created 1 atoms
  using lattice units in orthogonal box = (0 0 0) to (50.396842 50.396842 50.396842)
  create_atoms CPU = 0.002 seconds
Created 1 atoms
  using lattice units in orthogonal box = (0 0 0) to (50.396842 50.396842 50.396842)
  create_atoms CPU = 0.002 seconds
Created 1 atoms
  using lattice units in orthogonal box = (0 0 0) to (50.396842 50.396842 50.396842)
  create_atoms CPU = 0.002 seconds
Created 1 atoms
  using lattice units in orthogonal box = (0 0 0) to (50.396842 50.396842 50.396842)
  create_atoms CPU = 0.002 seconds
Created 1 atoms
  using lattice units in orthogonal box = (0 0 0) to (50.396842 50.396842 50.396842)
  create_atoms CPU = 0.002 seconds
Created 1 atoms
  using lattice units in orthogonal box = (0 0 0) to (50.396842 50.396842 50.396842)
  create_atoms CPU = 0.002 seconds
Created 1 atoms
  using lattice units in orthogonal box = (0 0 0) to (50.396842 50.396842 50.396842)
  create_atoms CPU = 0.002 seconds
Created 1 atoms
  using lattice units in orthogonal box = (0 0 0) to (50.396842 50.396842 50.396842)
  create_atoms CPU = 0.002 seconds
Created 1 atoms
  using lattice units in orthogonal box = (0 0 0) to (50.396842 50.396842 50.396842)
  create_atoms CPU = 0.002 seconds
Created 1 atoms
  using lattice units in orthogonal box = (0 0 0) to (50.396842 50.396842 50.396842)
  create_atoms CPU = 0.002 seconds
Created 1 atoms
  using lattice units in orthogonal box = (0 0 0) to (50.396842 50.396842 50.396842)
  create_atoms CPU = 0.002 seconds
Created 1 atoms
  using lattice units in orthogonal box = (0 0 0) to (50.396842 50.396842 50.396842)
  create_atoms CPU = 0.003 seconds
Created 1 atoms
  using lattice units in orthogonal box = (0 0 0) to (50.396842 50.396842 50.396842)
  create_atoms CPU = 0.002 seconds
Created 1 atoms
  using lattice units in orthogonal box = (0 0 0) to (50.396842 50.396842 50.396842)
  create_atoms CPU = 0.002 seconds
Created 1 atoms
  using lattice units in orthogonal box = (0 0 0) to (50.396842 50.396842 50.396842)
  create_atoms CPU = 0.002 seconds
Created 1 atoms
  using lattice units in orthogonal box = (0 0 0) to (50.396842 50.396842 50.396842)
  create_atoms CPU = 0.002 seconds
Created 1 atoms
  using lattice units in orthogonal box = (0 0 0) to (50.396842 50.396842 50.396842)
  create_atoms CPU = 0.002 seconds
Created 1 atoms
  using lattice units in orthogonal box = (0 0 0) to (50.396842 50.396842 50.396842)
  create_atoms CPU = 0.002 seconds
Created 1 atoms
  using lattice units in orthogonal box = (0 0 0) to (50.396842 50.396842 50.396842)
  create_atoms CPU = 0.002 seconds
Created 1 atoms
  using lattice units in orthogonal box = (0 0 0) to (50.396842 50.396842 50.396842)
  create_atoms CPU = 0.002 seconds
Created 1 atoms
  using lattice units in orthogonal box = (0 0 0) to (50.396842 50.396842 50.396842)
  create_atoms CPU = 0.002 seconds
Created 1 atoms
  using lattice units in orthogonal box = (0 0 0) to (50.396842 50.396842 50.396842)
  create_atoms CPU = 0.002 seconds
Created 1 atoms
  using lattice units in orthogonal box = (0 0 0) to (50.396842 50.396842 50.396842)
  create_atoms CPU = 0.002 seconds
Created 1 atoms
  using lattice units in orthogonal box = (0 0 0) to (50.396842 50.396842 50.396842)
  create_atoms CPU = 0.002 seconds
Created 1 atoms
  using lattice units in orthogonal box = (0 0 0) to (50.396842 50.396842 50.396842)
  create_atoms CPU = 0.002 seconds
Created 1 atoms
  using lattice units in orthogonal box = (0 0 0) to (50.396842 50.396842 50.396842)
  create_atoms CPU = 0.002 seconds
Created 1 atoms
  using lattice units in orthogonal box = (0 0 0) to (50.396842 50.396842 50.396842)
  create_atoms CPU = 0.002 seconds
Created 1 atoms
  using lattice units in orthogonal box = (0 0 0) to (50.396842 50.396842 50.396842)
  create_atoms CPU = 0.002 seconds
Created 1 atoms
  using lattice units in orthogonal box = (0 0 0) to (50.396842 50.396842 50.396842)
  create_atoms CPU = 0.002 seconds
Created 1 atoms
  using lattice units in orthogonal box = (0 0 0) to (50.396842 50.396842 50.396842)
  create_atoms CPU = 0.002 seconds
Created 1 atoms
  using lattice units in orthogonal box = (0 0 0) to (50.396842 50.396842 50.396842)
  create_atoms CPU = 0.003 seconds
Created 1 atoms
  using lattice units in orthogonal box = (0 0 0) to (50.396842 50.396842 50.396842)
  create_atoms CPU = 0.002 seconds
Created 1 atoms
  using lattice units in orthogonal box = (0 0 0) to (50.396842 50.396842 50.396842)
  create_atoms CPU = 0.002 seconds
Created 1 atoms
  using lattice units in orthogonal box = (0 0 0) to (50.396842 50.396842 50.396842)
  create_atoms CPU = 0.002 seconds
Created 1 atoms
  using lattice units in orthogonal box = (0 0 0) to (50.396842 50.396842 50.396842)
  create_atoms CPU = 0.002 seconds
Created 1 atoms
  using lattice units in orthogonal box = (0 0 0) to (50.396842 50.396842 50.396842)
  create_atoms CPU = 0.002 seconds
Created 1 atoms
  using lattice units in orthogonal box = (0 0 0) to (50.396842 50.396842 50.396842)
  create_atoms CPU = 0.002 seconds
Created 1 atoms
  using lattice units in orthogonal box = (0 0 0) to (50.396842 50.396842 50.396842)
  create_atoms CPU = 0.002 seconds
Created 1 atoms
  using lattice units in orthogonal box = (0 0 0) to (50.396842 50.396842 50.396842)
  create_atoms CPU = 0.002 seconds
Created 1 atoms
  using lattice units in orthogonal box = (0 0 0) to (50.396842 50.396842 50.396842)
  create_atoms CPU = 0.002 seconds
Created 1 atoms
  using lattice units in orthogonal box = (0 0 0) to (50.396842 50.396842 50.396842)
  create_atoms CPU = 0.002 seconds
Created 1 atoms
  using lattice units in orthogonal box = (0 0 0) to (50.396842 50.396842 50.396842)
  create_atoms CPU = 0.002 seconds
Created 1 atoms
  using lattice units in orthogonal box = (0 0 0) to (50.396842 50.396842 50.396842)
  create_atoms CPU = 0.002 seconds
Created 1 atoms
  using lattice units in orthogonal box = (0 0 0) to (50.396842 50.396842 50.396842)
  create_atoms CPU = 0.002 seconds
Created 1 atoms
  using lattice units in orthogonal box = (0 0 0) to (50.396842 50.396842 50.396842)
  create_atoms CPU = 0.002 seconds
Created 1 atoms
  using lattice units in orthogonal box = (0 0 0) to (50.396842 50.396842 50.396842)
  create_atoms CPU = 0.002 seconds
Created 1 atoms
  using lattice units in orthogonal box = (0 0 0) to (50.396842 50.396842 50.396842)
  create_atoms CPU = 0.002 seconds
Created 1 atoms
  using lattice units in orthogonal box = (0 0 0) to (50.396842 50.396842 50.396842)
  create_atoms CPU = 0.002 seconds
Created 1 atoms
  using lattice units in orthogonal box = (0 0 0) to (50.396842 50.396842 50.396842)
  create_atoms CPU = 0.002 seconds
Created 1 atoms
  using lattice units in orthogonal box = (0 0 0) to (50.396842 50.396842 50.396842)
  create_atoms CPU = 0.003 seconds
Created 1 atoms
  using lattice units in orthogonal box = (0 0 0) to (50.396842 50.396842 50.396842)
  create_atoms CPU = 0.002 seconds
Created 1 atoms
  using lattice units in orthogonal box = (0 0 0) to (50.396842 50.396842 50.396842)
  create_atoms CPU = 0.002 seconds
Created 1 atoms
  using lattice units in orthogonal box = (0 0 0) to (50.396842 50.396842 50.396842)
  create_atoms CPU = 0.002 seconds
Created 1 atoms
  using lattice units in orthogonal box = (0 0 0) to (50.396842 50.396842 50.396842)
  create_atoms CPU = 0.002 seconds
Created 1 atoms
  using lattice units in orthogonal box = (0 0 0) to (50.396842 50.396842 50.396842)
  create_atoms CPU = 0.002 seconds
Created 1 atoms
  using lattice units in orthogonal box = (0 0 0) to (50.396842 50.396842 50.396842)
  create_atoms CPU = 0.002 seconds
Created 1 atoms
  using lattice units in orthogonal box = (0 0 0) to (50.396842 50.396842 50.396842)
  create_atoms CPU = 0.002 seconds
Created 1 atoms
  using lattice units in orthogonal box = (0 0 0) to (50.396842 50.396842 50.396842)
  create_atoms CPU = 0.002 seconds
Created 1 atoms
  using lattice units in orthogonal box = (0 0 0) to (50.396842 50.396842 50.396842)
  create_atoms CPU = 0.002 seconds
Created 1 atoms
  using lattice units in orthogonal box = (0 0 0) to (50.396842 50.396842 50.396842)
  create_atoms CPU = 0.002 seconds
Created 1 atoms
  using lattice units in orthogonal box = (0 0 0) to (50.396842 50.396842 50.396842)
  create_atoms CPU = 0.002 seconds
Created 1 atoms
  using lattice units in orthogonal box = (0 0 0) to (50.396842 50.396842 50.396842)
  create_atoms CPU = 0.002 seconds
Created 1 atoms
  using lattice units in orthogonal box = (0 0 0) to (50.396842 50.396842 50.396842)
  create_atoms CPU = 0.002 seconds
Created 1 atoms
  using lattice units in orthogonal box = (0 0 0) to (50.396842 50.396842 50.396842)
  create_atoms CPU = 0.002 seconds
Created 1 atoms
  using lattice units in orthogonal box = (0 0 0) to (50.396842 50.396842 50.396842)
  create_atoms CPU = 0.002 seconds
Created 1 atoms
  using lattice units in orthogonal box = (0 0 0) to (50.396842 50.396842 50.396842)
  create_atoms CPU = 0.002 seconds
Created 1 atoms
  using lattice units in orthogonal box = (0 0 0) to (50.396842 50.396842 50.396842)
  create_atoms CPU = 0.002 seconds
Created 1 atoms
  using lattice units in orthogonal box = (0 0 0) to (50.396842 50.396842 50.396842)
  create_atoms CPU = 0.002 seconds
Created 1 atoms
  using lattice units in orthogonal box = (0 0 0) to (50.396842 50.396842 50.396842)
  create_atoms CPU = 0.002 seconds
Created 1 atoms
  using lattice units in orthogonal box = (0 0 0) to (50.396842 50.396842 50.396842)
  create_atoms CPU = 0.003 seconds
Created 1 atoms
  using lattice units in orthogonal box = (0 0 0) to (50.396842 50.396842 50.396842)
  create_atoms CPU = 0.002 seconds
Created 1 atoms
  using lattice units in orthogonal box = (0 0 0) to (50.396842 50.396842 50.396842)
  create_atoms CPU = 0.002 seconds
Created 1 atoms
  using lattice units in orthogonal box = (0 0 0) to (50.396842 50.396842 50.396842)
  create_atoms CPU = 0.002 seconds
Created 1 atoms
  using lattice units in orthogonal box = (0 0 0) to (50.396842 50.396842 50.396842)
  create_atoms CPU = 0.002 seconds
Created 1 atoms
  using lattice units in orthogonal box = (0 0 0) to (50.396842 50.396842 50.396842)
  create_atoms CPU = 0.002 seconds
Created 1 atoms
  using lattice units in orthogonal box = (0 0 0) to (50.396842 50.396842 50.396842)
  create_atoms CPU = 0.002 seconds
Created 1 atoms
  using lattice units in orthogonal box = (0 0 0) to (50.396842 50.396842 50.396842)
  create_atoms CPU = 0.002 seconds
Created 1 atoms
  using lattice units in orthogonal box = (0 0 0) to (50.396842 50.396842 50.396842)
  create_atoms CPU = 0.002 seconds
Created 1 atoms
  using lattice units in orthogonal box = (0 0 0) to (50.396842 50.396842 50.396842)
  create_atoms CPU = 0.002 seconds
Created 1 atoms
  using lattice units in orthogonal box = (0 0 0) to (50.396842 50.396842 50.396842)
  create_atoms CPU = 0.002 seconds
Created 1 atoms
  using lattice units in orthogonal box = (0 0 0) to (50.396842 50.396842 50.396842)
  create_atoms CPU = 0.002 seconds
Created 1 atoms
  using lattice units in orthogonal box = (0 0 0) to (50.396842 50.396842 50.396842)
  create_atoms CPU = 0.002 seconds
Created 1 atoms
  using lattice units in orthogonal box = (0 0 0) to (50.396842 50.396842 50.396842)
  create_atoms CPU = 0.002 seconds
Created 1 atoms
  using lattice units in orthogonal box = (0 0 0) to (50.396842 50.396842 50.396842)
  create_atoms CPU = 0.002 seconds
Created 1 atoms
  using lattice units in orthogonal box = (0 0 0) to (50.396842 50.396842 50.396842)
  create_atoms CPU = 0.002 seconds
Created 1 atoms
  using lattice units in orthogonal box = (0 0 0) to (50.396842 50.396842 50.396842)
  create_atoms CPU = 0.002 seconds
Created 1 atoms
  using lattice units in orthogonal box = (0 0 0) to (50.396842 50.396842 50.396842)
  create_atoms CPU = 0.002 seconds
Created 1 atoms
  using lattice units in orthogonal box = (0 0 0) to (50.396842 50.396842 50.396842)
  create_atoms CPU = 0.002 seconds
Created 1 atoms
  using lattice units in orthogonal box = (0 0 0) to (50.396842 50.396842 50.396842)
  create_atoms CPU = 0.002 seconds
Created 1 atoms
  using lattice units in orthogonal box = (0 0 0) to (50.396842 50.396842 50.396842)
  create_atoms CPU = 0.002 seconds
Created 1 atoms
  using lattice units in orthogonal box = (0 0 0) to (50.396842 50.396842 50.396842)
  create_atoms CPU = 0.002 seconds
Created 1 atoms
  using lattice units in orthogonal box = (0 0 0) to (50.396842 50.396842 50.396842)
  create_atoms CPU = 0.002 seconds
Created 1 atoms
  using lattice units in orthogonal box = (0 0 0) to (50.396842 50.396842 50.396842)
  create_atoms CPU = 0.002 seconds
Created 1 atoms
  using lattice units in orthogonal box = (0 0 0) to (50.396842 50.396842 50.396842)
  create_atoms CPU = 0.002 seconds
Created 1 atoms
  using lattice units in orthogonal box = (0 0 0) to (50.396842 50.396842 50.396842)
  create_atoms CPU = 0.002 seconds
Created 1 atoms
  using lattice units in orthogonal box = (0 0 0) to (50.396842 50.396842 50.396842)
  create_atoms CPU = 0.002 seconds
Created 1 atoms
  using lattice units in orthogonal box = (0 0 0) to (50.396842 50.396842 50.396842)
  create_atoms CPU = 0.002 seconds
Created 1 atoms
  using lattice units in orthogonal box = (0 0 0) to (50.396842 50.396842 50.396842)
  create_atoms CPU = 0.002 seconds
Created 1 atoms
  using lattice units in orthogonal box = (0 0 0) to (50.396842 50.396842 50.396842)
  create_atoms CPU = 0.002 seconds
Created 1 atoms
  using lattice units in orthogonal box = (0 0 0) to (50.396842 50.396842 50.396842)
  create_atoms CPU = 0.002 seconds
Created 1 atoms
  using lattice units in orthogonal box = (0 0 0) to (50.396842 50.396842 50.396842)
  create_atoms CPU = 0.002 seconds
Created 1 atoms
  using lattice units in orthogonal box = (0 0 0) to (50.396842 50.396842 50.396842)
  create_atoms CPU = 0.002 seconds
Created 1 atoms
  using lattice units in orthogonal box = (0 0 0) to (50.396842 50.396842 50.396842)
  create_atoms CPU = 0.002 seconds
Created 1 atoms
  using lattice units in orthogonal box = (0 0 0) to (50.396842 50.396842 50.396842)
  create_atoms CPU = 0.002 seconds
Created 1 atoms
  using lattice units in orthogonal box = (0 0 0) to (50.396842 50.396842 50.396842)
  create_atoms CPU = 0.002 seconds
Created 1 atoms
  using lattice units in orthogonal box = (0 0 0) to (50.396842 50.396842 50.396842)
  create_atoms CPU = 0.002 seconds
Created 1 atoms
  using lattice units in orthogonal box = (0 0 0) to (50.396842 50.396842 50.396842)
  create_atoms CPU = 0.002 seconds
Created 1 atoms
  using lattice units in orthogonal box = (0 0 0) to (50.396842 50.396842 50.396842)
  create_atoms CPU = 0.002 seconds
Created 1 atoms
  using lattice units in orthogonal box = (0 0 0) to (50.396842 50.396842 50.396842)
  create_atoms CPU = 0.002 seconds
Created 1 atoms
  using lattice units in orthogonal box = (0 0 0) to (50.396842 50.396842 50.396842)
  create_atoms CPU = 0.002 seconds
Created 1 atoms
  using lattice units in orthogonal box = (0 0 0) to (50.396842 50.396842 50.396842)
  create_atoms CPU = 0.003 seconds
Created 1 atoms
  using lattice units in orthogonal box = (0 0 0) to (50.396842 50.396842 50.396842)
  create_atoms CPU = 0.002 seconds
Created 1 atoms
  using lattice units in orthogonal box = (0 0 0) to (50.396842 50.396842 50.396842)
  create_atoms CPU = 0.002 seconds
Created 1 atoms
  using lattice units in orthogonal box = (0 0 0) to (50.396842 50.396842 50.396842)
  create_atoms CPU = 0.002 seconds
Created 1 atoms
  using lattice units in orthogonal box = (0 0 0) to (50.396842 50.396842 50.396842)
  create_atoms CPU = 0.002 seconds
Created 1 atoms
  using lattice units in orthogonal box = (0 0 0) to (50.396842 50.396842 50.396842)
  create_atoms CPU = 0.002 seconds
Created 1 atoms
  using lattice units in orthogonal box = (0 0 0) to (50.396842 50.396842 50.396842)
  create_atoms CPU = 0.002 seconds
Created 1 atoms
  using lattice units in orthogonal box = (0 0 0) to (50.396842 50.396842 50.396842)
  create_atoms CPU = 0.002 seconds
Created 1 atoms
  using lattice units in orthogonal box = (0 0 0) to (50.396842 50.396842 50.396842)
  create_atoms CPU = 0.002 seconds
Created 1 atoms
  using lattice units in orthogonal box = (0 0 0) to (50.396842 50.396842 50.396842)
  create_atoms CPU = 0.002 seconds
Created 1 atoms
  using lattice units in orthogonal box = (0 0 0) to (50.396842 50.396842 50.396842)
  create_atoms CPU = 0.002 seconds
Created 1 atoms
  using lattice units in orthogonal box = (0 0 0) to (50.396842 50.396842 50.396842)
  create_atoms CPU = 0.002 seconds
Created 1 atoms
  using lattice units in orthogonal box = (0 0 0) to (50.396842 50.396842 50.396842)
  create_atoms CPU = 0.002 seconds
Created 1 atoms
  using lattice units in orthogonal box = (0 0 0) to (50.396842 50.396842 50.396842)
  create_atoms CPU = 0.002 seconds
Created 1 atoms
  using lattice units in orthogonal box = (0 0 0) to (50.396842 50.396842 50.396842)
  create_atoms CPU = 0.002 seconds
Created 1 atoms
  using lattice units in orthogonal box = (0 0 0) to (50.396842 50.396842 50.396842)
  create_atoms CPU = 0.002 seconds
Created 1 atoms
  using lattice units in orthogonal box = (0 0 0) to (50.396842 50.396842 50.396842)
  create_atoms CPU = 0.002 seconds
Created 1 atoms
  using lattice units in orthogonal box = (0 0 0) to (50.396842 50.396842 50.396842)
  create_atoms CPU = 0.002 seconds
Created 1 atoms
  using lattice units in orthogonal box = (0 0 0) to (50.396842 50.396842 50.396842)
  create_atoms CPU = 0.002 seconds
Created 1 atoms
  using lattice units in orthogonal box = (0 0 0) to (50.396842 50.396842 50.396842)
  create_atoms CPU = 0.002 seconds
Created 1 atoms
  using lattice units in orthogonal box = (0 0 0) to (50.396842 50.396842 50.396842)
  create_atoms CPU = 0.002 seconds
Created 1 atoms
  using lattice units in orthogonal box = (0 0 0) to (50.396842 50.396842 50.396842)
  create_atoms CPU = 0.002 seconds
Created 1 atoms
  using lattice units in orthogonal box = (0 0 0) to (50.396842 50.396842 50.396842)
  create_atoms CPU = 0.002 seconds
Created 1 atoms
  using lattice units in orthogonal box = (0 0 0) to (50.396842 50.396842 50.396842)
  create_atoms CPU = 0.002 seconds
Created 1 atoms
  using lattice units in orthogonal box = (0 0 0) to (50.396842 50.396842 50.396842)
  create_atoms CPU = 0.002 seconds
Created 1 atoms
  using lattice units in orthogonal box = (0 0 0) to (50.396842 50.396842 50.396842)
  create_atoms CPU = 0.002 seconds
Created 1 atoms
  using lattice units in orthogonal box = (0 0 0) to (50.396842 50.396842 50.396842)
  create_atoms CPU = 0.002 seconds
Created 1 atoms
  using lattice units in orthogonal box = (0 0 0) to (50.396842 50.396842 50.396842)
  create_atoms CPU = 0.002 seconds
Created 1 atoms
  using lattice units in orthogonal box = (0 0 0) to (50.396842 50.396842 50.396842)
  create_atoms CPU = 0.002 seconds
Created 1 atoms
  using lattice units in orthogonal box = (0 0 0) to (50.396842 50.396842 50.396842)
  create_atoms CPU = 0.002 seconds
Created 1 atoms
  using lattice units in orthogonal box = (0 0 0) to (50.396842 50.396842 50.396842)
  create_atoms CPU = 0.002 seconds
Created 1 atoms
  using lattice units in orthogonal box = (0 0 0) to (50.396842 50.396842 50.396842)
  create_atoms CPU = 0.002 seconds
Created 1 atoms
  using lattice units in orthogonal box = (0 0 0) to (50.396842 50.396842 50.396842)
  create_atoms CPU = 0.002 seconds
Created 1 atoms
  using lattice units in orthogonal box = (0 0 0) to (50.396842 50.396842 50.396842)
  create_atoms CPU = 0.002 seconds
Created 1 atoms
  using lattice units in orthogonal box = (0 0 0) to (50.396842 50.396842 50.396842)
  create_atoms CPU = 0.002 seconds
Created 1 atoms
  using lattice units in orthogonal box = (0 0 0) to (50.396842 50.396842 50.396842)
  create_atoms CPU = 0.002 seconds
Created 1 atoms
  using lattice units in orthogonal box = (0 0 0) to (50.396842 50.396842 50.396842)
  create_atoms CPU = 0.002 seconds
Created 1 atoms
  using lattice units in orthogonal box = (0 0 0) to (50.396842 50.396842 50.396842)
  create_atoms CPU = 0.002 seconds
Created 1 atoms
  using lattice units in orthogonal box = (0 0 0) to (50.396842 50.396842 50.396842)
  create_atoms CPU = 0.002 seconds
Created 1 atoms
  using lattice units in orthogonal box = (0 0 0) to (50.396842 50.396842 50.396842)
  create_atoms CPU = 0.002 seconds
Created 1 atoms
  using lattice units in orthogonal box = (0 0 0) to (50.396842 50.396842 50.396842)
  create_atoms CPU = 0.002 seconds
Created 1 atoms
  using lattice units in orthogonal box = (0 0 0) to (50.396842 50.396842 50.396842)
  create_atoms CPU = 0.002 seconds
Created 1 atoms
  using lattice units in orthogonal box = (0 0 0) to (50.396842 50.396842 50.396842)
  create_atoms CPU = 0.002 seconds
Created 1 atoms
  using lattice units in orthogonal box = (0 0 0) to (50.396842 50.396842 50.396842)
  create_atoms CPU = 0.003 seconds
Created 1 atoms
  using lattice units in orthogonal box = (0 0 0) to (50.396842 50.396842 50.396842)
  create_atoms CPU = 0.002 seconds
Created 1 atoms
  using lattice units in orthogonal box = (0 0 0) to (50.396842 50.396842 50.396842)
  create_atoms CPU = 0.002 seconds
Created 1 atoms
  using lattice units in orthogonal box = (0 0 0) to (50.396842 50.396842 50.396842)
  create_atoms CPU = 0.002 seconds
Created 1 atoms
  using lattice units in orthogonal box = (0 0 0) to (50.396842 50.396842 50.396842)
  create_atoms CPU = 0.002 seconds
Created 1 atoms
  using lattice units in orthogonal box = (0 0 0) to (50.396842 50.396842 50.396842)
  create_atoms CPU = 0.002 seconds
Created 1 atoms
  using lattice units in orthogonal box = (0 0 0) to (50.396842 50.396842 50.396842)
  create_atoms CPU = 0.002 seconds
Created 1 atoms
  using lattice units in orthogonal box = (0 0 0) to (50.396842 50.396842 50.396842)
  create_atoms CPU = 0.002 seconds
Created 1 atoms
  using lattice units in orthogonal box = (0 0 0) to (50.396842 50.396842 50.396842)
  create_atoms CPU = 0.002 seconds
Created 1 atoms
  using lattice units in orthogonal box = (0 0 0) to (50.396842 50.396842 50.396842)
  create_atoms CPU = 0.002 seconds
Created 1 atoms
  using lattice units in orthogonal box = (0 0 0) to (50.396842 50.396842 50.396842)
  create_atoms CPU = 0.002 seconds
Created 1 atoms
  using lattice units in orthogonal box = (0 0 0) to (50.396842 50.396842 50.396842)
  create_atoms CPU = 0.002 seconds
Created 1 atoms
  using lattice units in orthogonal box = (0 0 0) to (50.396842 50.396842 50.396842)
  create_atoms CPU = 0.002 seconds
Created 1 atoms
  using lattice units in orthogonal box = (0 0 0) to (50.396842 50.396842 50.396842)
  create_atoms CPU = 0.002 seconds
Created 1 atoms
  using lattice units in orthogonal box = (0 0 0) to (50.396842 50.396842 50.396842)
  create_atoms CPU = 0.002 seconds
Created 1 atoms
  using lattice units in orthogonal box = (0 0 0) to (50.396842 50.396842 50.396842)
  create_atoms CPU = 0.002 seconds
Created 1 atoms
  using lattice units in orthogonal box = (0 0 0) to (50.396842 50.396842 50.396842)
  create_atoms CPU = 0.002 seconds
Created 1 atoms
  using lattice units in orthogonal box = (0 0 0) to (50.396842 50.396842 50.396842)
  create_atoms CPU = 0.002 seconds
Created 1 atoms
  using lattice units in orthogonal box = (0 0 0) to (50.396842 50.396842 50.396842)
  create_atoms CPU = 0.002 seconds
Created 1 atoms
  using lattice units in orthogonal box = (0 0 0) to (50.396842 50.396842 50.396842)
  create_atoms CPU = 0.002 seconds
Created 1 atoms
  using lattice units in orthogonal box = (0 0 0) to (50.396842 50.396842 50.396842)
  create_atoms CPU = 0.002 seconds
Created 1 atoms
  using lattice units in orthogonal box = (0 0 0) to (50.396842 50.396842 50.396842)
  create_atoms CPU = 0.002 seconds
Created 1 atoms
  using lattice units in orthogonal box = (0 0 0) to (50.396842 50.396842 50.396842)
  create_atoms CPU = 0.002 seconds
Created 1 atoms
  using lattice units in orthogonal box = (0 0 0) to (50.396842 50.396842 50.396842)
  create_atoms CPU = 0.003 seconds
Created 1 atoms
  using lattice units in orthogonal box = (0 0 0) to (50.396842 50.396842 50.396842)
  create_atoms CPU = 0.002 seconds
Created 1 atoms
  using lattice units in orthogonal box = (0 0 0) to (50.396842 50.396842 50.396842)
  create_atoms CPU = 0.002 seconds
Created 1 atoms
  using lattice units in orthogonal box = (0 0 0) to (50.396842 50.396842 50.396842)
  create_atoms CPU = 0.002 seconds
Created 1 atoms
  using lattice units in orthogonal box = (0 0 0) to (50.396842 50.396842 50.396842)
  create_atoms CPU = 0.002 seconds
Created 1 atoms
  using lattice units in orthogonal box = (0 0 0) to (50.396842 50.396842 50.396842)
  create_atoms CPU = 0.002 seconds
Created 1 atoms
  using lattice units in orthogonal box = (0 0 0) to (50.396842 50.396842 50.396842)
  create_atoms CPU = 0.002 seconds
Created 1 atoms
  using lattice units in orthogonal box = (0 0 0) to (50.396842 50.396842 50.396842)
  create_atoms CPU = 0.002 seconds
Created 1 atoms
  using lattice units in orthogonal box = (0 0 0) to (50.396842 50.396842 50.396842)
  create_atoms CPU = 0.002 seconds
Created 1 atoms
  using lattice units in orthogonal box = (0 0 0) to (50.396842 50.396842 50.396842)
  create_atoms CPU = 0.002 seconds
Created 1 atoms
  using lattice units in orthogonal box = (0 0 0) to (50.396842 50.396842 50.396842)
  create_atoms CPU = 0.002 seconds
Created 1 atoms
  using lattice units in orthogonal box = (0 0 0) to (50.396842 50.396842 50.396842)
  create_atoms CPU = 0.002 seconds
Created 1 atoms
  using lattice units in orthogonal box = (0 0 0) to (50.396842 50.396842 50.396842)
  create_atoms CPU = 0.002 seconds
Created 1 atoms
  using lattice units in orthogonal box = (0 0 0) to (50.396842 50.396842 50.396842)
  create_atoms CPU = 0.002 seconds
Created 1 atoms
  using lattice units in orthogonal box = (0 0 0) to (50.396842 50.396842 50.396842)
  create_atoms CPU = 0.002 seconds
Created 1 atoms
  using lattice units in orthogonal box = (0 0 0) to (50.396842 50.396842 50.396842)
  create_atoms CPU = 0.002 seconds
Created 1 atoms
  using lattice units in orthogonal box = (0 0 0) to (50.396842 50.396842 50.396842)
  create_atoms CPU = 0.002 seconds
Created 1 atoms
  using lattice units in orthogonal box = (0 0 0) to (50.396842 50.396842 50.396842)
  create_atoms CPU = 0.002 seconds
Created 1 atoms
  using lattice units in orthogonal box = (0 0 0) to (50.396842 50.396842 50.396842)
  create_atoms CPU = 0.002 seconds
Created 1 atoms
  using lattice units in orthogonal box = (0 0 0) to (50.396842 50.396842 50.396842)
  create_atoms CPU = 0.002 seconds
Created 1 atoms
  using lattice units in orthogonal box = (0 0 0) to (50.396842 50.396842 50.396842)
  create_atoms CPU = 0.002 seconds
Created 1 atoms
  using lattice units in orthogonal box = (0 0 0) to (50.396842 50.396842 50.396842)
  create_atoms CPU = 0.002 seconds
Created 1 atoms
  using lattice units in orthogonal box = (0 0 0) to (50.396842 50.396842 50.396842)
  create_atoms CPU = 0.003 seconds
Created 1 atoms
  using lattice units in orthogonal box = (0 0 0) to (50.396842 50.396842 50.396842)
  create_atoms CPU = 0.002 seconds
Created 1 atoms
  using lattice units in orthogonal box = (0 0 0) to (50.396842 50.396842 50.396842)
  create_atoms CPU = 0.002 seconds
Created 1 atoms
  using lattice units in orthogonal box = (0 0 0) to (50.396842 50.396842 50.396842)
  create_atoms CPU = 0.002 seconds
Created 1 atoms
  using lattice units in orthogonal box = (0 0 0) to (50.396842 50.396842 50.396842)
  create_atoms CPU = 0.002 seconds
Created 1 atoms
  using lattice units in orthogonal box = (0 0 0) to (50.396842 50.396842 50.396842)
  create_atoms CPU = 0.002 seconds
Created 1 atoms
  using lattice units in orthogonal box = (0 0 0) to (50.396842 50.396842 50.396842)
  create_atoms CPU = 0.002 seconds
Created 1 atoms
  using lattice units in orthogonal box = (0 0 0) to (50.396842 50.396842 50.396842)
  create_atoms CPU = 0.002 seconds
Created 1 atoms
  using lattice units in orthogonal box = (0 0 0) to (50.396842 50.396842 50.396842)
  create_atoms CPU = 0.002 seconds
Created 1 atoms
  using lattice units in orthogonal box = (0 0 0) to (50.396842 50.396842 50.396842)
  create_atoms CPU = 0.002 seconds
Created 1 atoms
  using lattice units in orthogonal box = (0 0 0) to (50.396842 50.396842 50.396842)
  create_atoms CPU = 0.002 seconds
Created 1 atoms
  using lattice units in orthogonal box = (0 0 0) to (50.396842 50.396842 50.396842)
  create_atoms CPU = 0.002 seconds
Created 1 atoms
  using lattice units in orthogonal box = (0 0 0) to (50.396842 50.396842 50.396842)
  create_atoms CPU = 0.002 seconds
Created 1 atoms
  using lattice units in orthogonal box = (0 0 0) to (50.396842 50.396842 50.396842)
  create_atoms CPU = 0.002 seconds
Created 1 atoms
  using lattice units in orthogonal box = (0 0 0) to (50.396842 50.396842 50.396842)
  create_atoms CPU = 0.002 seconds
Created 1 atoms
  using lattice units in orthogonal box = (0 0 0) to (50.396842 50.396842 50.396842)
  create_atoms CPU = 0.002 seconds
Created 1 atoms
  using lattice units in orthogonal box = (0 0 0) to (50.396842 50.396842 50.396842)
  create_atoms CPU = 0.002 seconds
Created 1 atoms
  using lattice units in orthogonal box = (0 0 0) to (50.396842 50.396842 50.396842)
  create_atoms CPU = 0.002 seconds
Created 1 atoms
  using lattice units in orthogonal box = (0 0 0) to (50.396842 50.396842 50.396842)
  create_atoms CPU = 0.002 seconds
Created 1 atoms
  using lattice units in orthogonal box = (0 0 0) to (50.396842 50.396842 50.396842)
  create_atoms CPU = 0.002 seconds
Created 1 atoms
  using lattice units in orthogonal box = (0 0 0) to (50.396842 50.396842 50.396842)
  create_atoms CPU = 0.002 seconds
Created 1 atoms
  using lattice units in orthogonal box = (0 0 0) to (50.396842 50.396842 50.396842)
  create_atoms CPU = 0.002 seconds
Created 1 atoms
  using lattice units in orthogonal box = (0 0 0) to (50.396842 50.396842 50.396842)
  create_atoms CPU = 0.002 seconds
Created 1 atoms
  using lattice units in orthogonal box = (0 0 0) to (50.396842 50.396842 50.396842)
  create_atoms CPU = 0.002 seconds
Created 1 atoms
  using lattice units in orthogonal box = (0 0 0) to (50.396842 50.396842 50.396842)
  create_atoms CPU = 0.003 seconds
Created 1 atoms
  using lattice units in orthogonal box = (0 0 0) to (50.396842 50.396842 50.396842)
  create_atoms CPU = 0.002 seconds
Created 1 atoms
  using lattice units in orthogonal box = (0 0 0) to (50.396842 50.396842 50.396842)
  create_atoms CPU = 0.002 seconds
Created 1 atoms
  using lattice units in orthogonal box = (0 0 0) to (50.396842 50.396842 50.396842)
  create_atoms CPU = 0.002 seconds
Created 1 atoms
  using lattice units in orthogonal box = (0 0 0) to (50.396842 50.396842 50.396842)
  create_atoms CPU = 0.002 seconds
Created 1 atoms
  using lattice units in orthogonal box = (0 0 0) to (50.396842 50.396842 50.396842)
  create_atoms CPU = 0.002 seconds
Created 1 atoms
  using lattice units in orthogonal box = (0 0 0) to (50.396842 50.396842 50.396842)
  create_atoms CPU = 0.002 seconds
Created 1 atoms
  using lattice units in orthogonal box = (0 0 0) to (50.396842 50.396842 50.396842)
  create_atoms CPU = 0.002 seconds
Created 1 atoms
  using lattice units in orthogonal box = (0 0 0) to (50.396842 50.396842 50.396842)
  create_atoms CPU = 0.002 seconds
Created 1 atoms
  using lattice units in orthogonal box = (0 0 0) to (50.396842 50.396842 50.396842)
  create_atoms CPU = 0.002 seconds
Created 1 atoms
  using lattice units in orthogonal box = (0 0 0) to (50.396842 50.396842 50.396842)
  create_atoms CPU = 0.002 seconds
Created 1 atoms
  using lattice units in orthogonal box = (0 0 0) to (50.396842 50.396842 50.396842)
  create_atoms CPU = 0.002 seconds
Created 1 atoms
  using lattice units in orthogonal box = (0 0 0) to (50.396842 50.396842 50.396842)
  create_atoms CPU = 0.002 seconds
Created 1 atoms
  using lattice units in orthogonal box = (0 0 0) to (50.396842 50.396842 50.396842)
  create_atoms CPU = 0.002 seconds
Created 1 atoms
  using lattice units in orthogonal box = (0 0 0) to (50.396842 50.396842 50.396842)
  create_atoms CPU = 0.002 seconds
Created 1 atoms
  using lattice units in orthogonal box = (0 0 0) to (50.396842 50.396842 50.396842)
  create_atoms CPU = 0.002 seconds
Created 1 atoms
  using lattice units in orthogonal box = (0 0 0) to (50.396842 50.396842 50.396842)
  create_atoms CPU = 0.002 seconds
Created 1 atoms
  using lattice units in orthogonal box = (0 0 0) to (50.396842 50.396842 50.396842)
  create_atoms CPU = 0.002 seconds
Created 1 atoms
  using lattice units in orthogonal box = (0 0 0) to (50.396842 50.396842 50.396842)
  create_atoms CPU = 0.002 seconds
Created 1 atoms
  using lattice units in orthogonal box = (0 0 0) to (50.396842 50.396842 50.396842)
  create_atoms CPU = 0.002 seconds
Created 1 atoms
  using lattice units in orthogonal box = (0 0 0) to (50.396842 50.396842 50.396842)
  create_atoms CPU = 0.002 seconds
Created 1 atoms
  using lattice units in orthogonal box = (0 0 0) to (50.396842 50.396842 50.396842)
  create_atoms CPU = 0.002 seconds
Created 1 atoms
  using lattice units in orthogonal box = (0 0 0) to (50.396842 50.396842 50.396842)
  create_atoms CPU = 0.002 seconds
Created 1 atoms
  using lattice units in orthogonal box = (0 0 0) to (50.396842 50.396842 50.396842)
  create_atoms CPU = 0.003 seconds
Created 1 atoms
  using lattice units in orthogonal box = (0 0 0) to (50.396842 50.396842 50.396842)
  create_atoms CPU = 0.002 seconds
Created 1 atoms
  using lattice units in orthogonal box = (0 0 0) to (50.396842 50.396842 50.396842)
  create_atoms CPU = 0.002 seconds
Created 1 atoms
  using lattice units in orthogonal box = (0 0 0) to (50.396842 50.396842 50.396842)
  create_atoms CPU = 0.002 seconds
Created 1 atoms
  using lattice units in orthogonal box = (0 0 0) to (50.396842 50.396842 50.396842)
  create_atoms CPU = 0.002 seconds
Created 1 atoms
  using lattice units in orthogonal box = (0 0 0) to (50.396842 50.396842 50.396842)
  create_atoms CPU = 0.002 seconds
Created 1 atoms
  using lattice units in orthogonal box = (0 0 0) to (50.396842 50.396842 50.396842)
  create_atoms CPU = 0.002 seconds
Created 1 atoms
  using lattice units in orthogonal box = (0 0 0) to (50.396842 50.396842 50.396842)
  create_atoms CPU = 0.002 seconds
Created 1 atoms
  using lattice units in orthogonal box = (0 0 0) to (50.396842 50.396842 50.396842)
  create_atoms CPU = 0.002 seconds
Created 1 atoms
  using lattice units in orthogonal box = (0 0 0) to (50.396842 50.396842 50.396842)
  create_atoms CPU = 0.002 seconds
Created 1 atoms
  using lattice units in orthogonal box = (0 0 0) to (50.396842 50.396842 50.396842)
  create_atoms CPU = 0.002 seconds
Created 1 atoms
  using lattice units in orthogonal box = (0 0 0) to (50.396842 50.396842 50.396842)
  create_atoms CPU = 0.002 seconds
Created 1 atoms
  using lattice units in orthogonal box = (0 0 0) to (50.396842 50.396842 50.396842)
  create_atoms CPU = 0.002 seconds
Created 1 atoms
  using lattice units in orthogonal box = (0 0 0) to (50.396842 50.396842 50.396842)
  create_atoms CPU = 0.002 seconds
Created 1 atoms
  using lattice units in orthogonal box = (0 0 0) to (50.396842 50.396842 50.396842)
  create_atoms CPU = 0.002 seconds
Created 1 atoms
  using lattice units in orthogonal box = (0 0 0) to (50.396842 50.396842 50.396842)
  create_atoms CPU = 0.002 seconds
Created 1 atoms
  using lattice units in orthogonal box = (0 0 0) to (50.396842 50.396842 50.396842)
  create_atoms CPU = 0.002 seconds
Created 1 atoms
  using lattice units in orthogonal box = (0 0 0) to (50.396842 50.396842 50.396842)
  create_atoms CPU = 0.002 seconds
Created 1 atoms
  using lattice units in orthogonal box = (0 0 0) to (50.396842 50.396842 50.396842)
  create_atoms CPU = 0.002 seconds
Created 1 atoms
  using lattice units in orthogonal box = (0 0 0) to (50.396842 50.396842 50.396842)
  create_atoms CPU = 0.002 seconds
Created 1 atoms
  using lattice units in orthogonal box = (0 0 0) to (50.396842 50.396842 50.396842)
  create_atoms CPU = 0.002 seconds
Created 1 atoms
  using lattice units in orthogonal box = (0 0 0) to (50.396842 50.396842 50.396842)
  create_atoms CPU = 0.002 seconds
Created 1 atoms
  using lattice units in orthogonal box = (0 0 0) to (50.396842 50.396842 50.396842)
  create_atoms CPU = 0.002 seconds
Created 1 atoms
  using lattice units in orthogonal box = (0 0 0) to (50.396842 50.396842 50.396842)
  create_atoms CPU = 0.002 seconds
Created 1 atoms
  using lattice units in orthogonal box = (0 0 0) to (50.396842 50.396842 50.396842)
  create_atoms CPU = 0.002 seconds
Created 1 atoms
  using lattice units in orthogonal box = (0 0 0) to (50.396842 50.396842 50.396842)
  create_atoms CPU = 0.003 seconds
Created 1 atoms
  using lattice units in orthogonal box = (0 0 0) to (50.396842 50.396842 50.396842)
  create_atoms CPU = 0.002 seconds
Created 1 atoms
  using lattice units in orthogonal box = (0 0 0) to (50.396842 50.396842 50.396842)
  create_atoms CPU = 0.002 seconds
Created 1 atoms
  using lattice units in orthogonal box = (0 0 0) to (50.396842 50.396842 50.396842)
  create_atoms CPU = 0.002 seconds
Created 1 atoms
  using lattice units in orthogonal box = (0 0 0) to (50.396842 50.396842 50.396842)
  create_atoms CPU = 0.002 seconds
Created 1 atoms
  using lattice units in orthogonal box = (0 0 0) to (50.396842 50.396842 50.396842)
  create_atoms CPU = 0.002 seconds
Created 1 atoms
  using lattice units in orthogonal box = (0 0 0) to (50.396842 50.396842 50.396842)
  create_atoms CPU = 0.002 seconds
Created 1 atoms
  using lattice units in orthogonal box = (0 0 0) to (50.396842 50.396842 50.396842)
  create_atoms CPU = 0.002 seconds
Created 1 atoms
  using lattice units in orthogonal box = (0 0 0) to (50.396842 50.396842 50.396842)
  create_atoms CPU = 0.002 seconds
Created 1 atoms
  using lattice units in orthogonal box = (0 0 0) to (50.396842 50.396842 50.396842)
  create_atoms CPU = 0.002 seconds
Created 1 atoms
  using lattice units in orthogonal box = (0 0 0) to (50.396842 50.396842 50.396842)
  create_atoms CPU = 0.002 seconds
Created 1 atoms
  using lattice units in orthogonal box = (0 0 0) to (50.396842 50.396842 50.396842)
  create_atoms CPU = 0.002 seconds
Created 1 atoms
  using lattice units in orthogonal box = (0 0 0) to (50.396842 50.396842 50.396842)
  create_atoms CPU = 0.002 seconds
Created 1 atoms
  using lattice units in orthogonal box = (0 0 0) to (50.396842 50.396842 50.396842)
  create_atoms CPU = 0.002 seconds
Created 1 atoms
  using lattice units in orthogonal box = (0 0 0) to (50.396842 50.396842 50.396842)
  create_atoms CPU = 0.002 seconds
Created 1 atoms
  using lattice units in orthogonal box = (0 0 0) to (50.396842 50.396842 50.396842)
  create_atoms CPU = 0.002 seconds
Created 1 atoms
  using lattice units in orthogonal box = (0 0 0) to (50.396842 50.396842 50.396842)
  create_atoms CPU = 0.002 seconds
Created 1 atoms
  using lattice units in orthogonal box = (0 0 0) to (50.396842 50.396842 50.396842)
  create_atoms CPU = 0.002 seconds
Created 1 atoms
  using lattice units in orthogonal box = (0 0 0) to (50.396842 50.396842 50.396842)
  create_atoms CPU = 0.002 seconds
Created 1 atoms
  using lattice units in orthogonal box = (0 0 0) to (50.396842 50.396842 50.396842)
  create_atoms CPU = 0.002 seconds
Created 1 atoms
  using lattice units in orthogonal box = (0 0 0) to (50.396842 50.396842 50.396842)
  create_atoms CPU = 0.002 seconds
Created 1 atoms
  using lattice units in orthogonal box = (0 0 0) to (50.396842 50.396842 50.396842)
  create_atoms CPU = 0.002 seconds
Created 1 atoms
  using lattice units in orthogonal box = (0 0 0) to (50.396842 50.396842 50.396842)
  create_atoms CPU = 0.002 seconds
Created 1 atoms
  using lattice units in orthogonal box = (0 0 0) to (50.396842 50.396842 50.396842)
  create_atoms CPU = 0.002 seconds
Created 1 atoms
  using lattice units in orthogonal box = (0 0 0) to (50.396842 50.396842 50.396842)
  create_atoms CPU = 0.003 seconds
Created 1 atoms
  using lattice units in orthogonal box = (0 0 0) to (50.396842 50.396842 50.396842)
  create_atoms CPU = 0.002 seconds
Created 1 atoms
  using lattice units in orthogonal box = (0 0 0) to (50.396842 50.396842 50.396842)
  create_atoms CPU = 0.002 seconds
Created 1 atoms
  using lattice units in orthogonal box = (0 0 0) to (50.396842 50.396842 50.396842)
  create_atoms CPU = 0.002 seconds
Created 1 atoms
  using lattice units in orthogonal box = (0 0 0) to (50.396842 50.396842 50.396842)
  create_atoms CPU = 0.002 seconds
Created 1 atoms
  using lattice units in orthogonal box = (0 0 0) to (50.396842 50.396842 50.396842)
  create_atoms CPU = 0.002 seconds
Created 1 atoms
  using lattice units in orthogonal box = (0 0 0) to (50.396842 50.396842 50.396842)
  create_atoms CPU = 0.002 seconds
Created 1 atoms
  using lattice units in orthogonal box = (0 0 0) to (50.396842 50.396842 50.396842)
  create_atoms CPU = 0.002 seconds
Created 1 atoms
  using lattice units in orthogonal box = (0 0 0) to (50.396842 50.396842 50.396842)
  create_atoms CPU = 0.002 seconds
Created 1 atoms
  using lattice units in orthogonal box = (0 0 0) to (50.396842 50.396842 50.396842)
  create_atoms CPU = 0.002 seconds
Created 1 atoms
  using lattice units in orthogonal box = (0 0 0) to (50.396842 50.396842 50.396842)
  create_atoms CPU = 0.002 seconds
Created 1 atoms
  using lattice units in orthogonal box = (0 0 0) to (50.396842 50.396842 50.396842)
  create_atoms CPU = 0.002 seconds
Created 1 atoms
  using lattice units in orthogonal box = (0 0 0) to (50.396842 50.396842 50.396842)
  create_atoms CPU = 0.002 seconds
Created 1 atoms
  using lattice units in orthogonal box = (0 0 0) to (50.396842 50.396842 50.396842)
  create_atoms CPU = 0.002 seconds
Created 1 atoms
  using lattice units in orthogonal box = (0 0 0) to (50.396842 50.396842 50.396842)
  create_atoms CPU = 0.002 seconds
Created 1 atoms
  using lattice units in orthogonal box = (0 0 0) to (50.396842 50.396842 50.396842)
  create_atoms CPU = 0.002 seconds
Created 1 atoms
  using lattice units in orthogonal box = (0 0 0) to (50.396842 50.396842 50.396842)
  create_atoms CPU = 0.002 seconds
Created 1 atoms
  using lattice units in orthogonal box = (0 0 0) to (50.396842 50.396842 50.396842)
  create_atoms CPU = 0.002 seconds
Created 1 atoms
  using lattice units in orthogonal box = (0 0 0) to (50.396842 50.396842 50.396842)
  create_atoms CPU = 0.002 seconds
Created 1 atoms
  using lattice units in orthogonal box = (0 0 0) to (50.396842 50.396842 50.396842)
  create_atoms CPU = 0.002 seconds
Created 1 atoms
  using lattice units in orthogonal box = (0 0 0) to (50.396842 50.396842 50.396842)
  create_atoms CPU = 0.002 seconds
Created 1 atoms
  using lattice units in orthogonal box = (0 0 0) to (50.396842 50.396842 50.396842)
  create_atoms CPU = 0.002 seconds
Created 1 atoms
  using lattice units in orthogonal box = (0 0 0) to (50.396842 50.396842 50.396842)
  create_atoms CPU = 0.002 seconds
Created 1 atoms
  using lattice units in orthogonal box = (0 0 0) to (50.396842 50.396842 50.396842)
  create_atoms CPU = 0.002 seconds
Created 1 atoms
  using lattice units in orthogonal box = (0 0 0) to (50.396842 50.396842 50.396842)
  create_atoms CPU = 0.002 seconds
Created 1 atoms
  using lattice units in orthogonal box = (0 0 0) to (50.396842 50.396842 50.396842)
  create_atoms CPU = 0.002 seconds
Created 1 atoms
  using lattice units in orthogonal box = (0 0 0) to (50.396842 50.396842 50.396842)
  create_atoms CPU = 0.003 seconds
Created 1 atoms
  using lattice units in orthogonal box = (0 0 0) to (50.396842 50.396842 50.396842)
  create_atoms CPU = 0.002 seconds
Created 1 atoms
  using lattice units in orthogonal box = (0 0 0) to (50.396842 50.396842 50.396842)
  create_atoms CPU = 0.002 seconds
Created 1 atoms
  using lattice units in orthogonal box = (0 0 0) to (50.396842 50.396842 50.396842)
  create_atoms CPU = 0.002 seconds
Created 1 atoms
  using lattice units in orthogonal box = (0 0 0) to (50.396842 50.396842 50.396842)
  create_atoms CPU = 0.002 seconds
Created 1 atoms
  using lattice units in orthogonal box = (0 0 0) to (50.396842 50.396842 50.396842)
  create_atoms CPU = 0.002 seconds
Created 1 atoms
  using lattice units in orthogonal box = (0 0 0) to (50.396842 50.396842 50.396842)
  create_atoms CPU = 0.002 seconds
Created 1 atoms
  using lattice units in orthogonal box = (0 0 0) to (50.396842 50.396842 50.396842)
  create_atoms CPU = 0.002 seconds
Created 1 atoms
  using lattice units in orthogonal box = (0 0 0) to (50.396842 50.396842 50.396842)
  create_atoms CPU = 0.002 seconds
Created 1 atoms
  using lattice units in orthogonal box = (0 0 0) to (50.396842 50.396842 50.396842)
  create_atoms CPU = 0.002 seconds
Created 1 atoms
  using lattice units in orthogonal box = (0 0 0) to (50.396842 50.396842 50.396842)
  create_atoms CPU = 0.002 seconds
Created 1 atoms
  using lattice units in orthogonal box = (0 0 0) to (50.396842 50.396842 50.396842)
  create_atoms CPU = 0.002 seconds
Created 1 atoms
  using lattice units in orthogonal box = (0 0 0) to (50.396842 50.396842 50.396842)
  create_atoms CPU = 0.002 seconds
Created 1 atoms
  using lattice units in orthogonal box = (0 0 0) to (50.396842 50.396842 50.396842)
  create_atoms CPU = 0.002 seconds
Created 1 atoms
  using lattice units in orthogonal box = (0 0 0) to (50.396842 50.396842 50.396842)
  create_atoms CPU = 0.002 seconds
Created 1 atoms
  using lattice units in orthogonal box = (0 0 0) to (50.396842 50.396842 50.396842)
  create_atoms CPU = 0.002 seconds
Created 1 atoms
  using lattice units in orthogonal box = (0 0 0) to (50.396842 50.396842 50.396842)
  create_atoms CPU = 0.002 seconds
Created 1 atoms
  using lattice units in orthogonal box = (0 0 0) to (50.396842 50.396842 50.396842)
  create_atoms CPU = 0.002 seconds
Created 1 atoms
  using lattice units in orthogonal box = (0 0 0) to (50.396842 50.396842 50.396842)
  create_atoms CPU = 0.002 seconds
Created 1 atoms
  using lattice units in orthogonal box = (0 0 0) to (50.396842 50.396842 50.396842)
  create_atoms CPU = 0.002 seconds
Created 1 atoms
  using lattice units in orthogonal box = (0 0 0) to (50.396842 50.396842 50.396842)
  create_atoms CPU = 0.002 seconds
Created 1 atoms
  using lattice units in orthogonal box = (0 0 0) to (50.396842 50.396842 50.396842)
  create_atoms CPU = 0.002 seconds
Created 1 atoms
  using lattice units in orthogonal box = (0 0 0) to (50.396842 50.396842 50.396842)
  create_atoms CPU = 0.002 seconds
Created 1 atoms
  using lattice units in orthogonal box = (0 0 0) to (50.396842 50.396842 50.396842)
  create_atoms CPU = 0.002 seconds
Created 1 atoms
  using lattice units in orthogonal box = (0 0 0) to (50.396842 50.396842 50.396842)
  create_atoms CPU = 0.002 seconds
Created 1 atoms
  using lattice units in orthogonal box = (0 0 0) to (50.396842 50.396842 50.396842)
  create_atoms CPU = 0.003 seconds
Created 1 atoms
  using lattice units in orthogonal box = (0 0 0) to (50.396842 50.396842 50.396842)
  create_atoms CPU = 0.002 seconds
Created 1 atoms
  using lattice units in orthogonal box = (0 0 0) to (50.396842 50.396842 50.396842)
  create_atoms CPU = 0.002 seconds
Created 1 atoms
  using lattice units in orthogonal box = (0 0 0) to (50.396842 50.396842 50.396842)
  create_atoms CPU = 0.002 seconds
Created 1 atoms
  using lattice units in orthogonal box = (0 0 0) to (50.396842 50.396842 50.396842)
  create_atoms CPU = 0.002 seconds
Created 1 atoms
  using lattice units in orthogonal box = (0 0 0) to (50.396842 50.396842 50.396842)
  create_atoms CPU = 0.002 seconds
Created 1 atoms
  using lattice units in orthogonal box = (0 0 0) to (50.396842 50.396842 50.396842)
  create_atoms CPU = 0.002 seconds
Created 1 atoms
  using lattice units in orthogonal box = (0 0 0) to (50.396842 50.396842 50.396842)
  create_atoms CPU = 0.002 seconds
Created 1 atoms
  using lattice units in orthogonal box = (0 0 0) to (50.396842 50.396842 50.396842)
  create_atoms CPU = 0.002 seconds
Created 1 atoms
  using lattice units in orthogonal box = (0 0 0) to (50.396842 50.396842 50.396842)
  create_atoms CPU = 0.002 seconds
Created 1 atoms
  using lattice units in orthogonal box = (0 0 0) to (50.396842 50.396842 50.396842)
  create_atoms CPU = 0.002 seconds
Created 1 atoms
  using lattice units in orthogonal box = (0 0 0) to (50.396842 50.396842 50.396842)
  create_atoms CPU = 0.002 seconds
Created 1 atoms
  using lattice units in orthogonal box = (0 0 0) to (50.396842 50.396842 50.396842)
  create_atoms CPU = 0.002 seconds
Created 1 atoms
  using lattice units in orthogonal box = (0 0 0) to (50.396842 50.396842 50.396842)
  create_atoms CPU = 0.002 seconds
Created 1 atoms
  using lattice units in orthogonal box = (0 0 0) to (50.396842 50.396842 50.396842)
  create_atoms CPU = 0.002 seconds
Created 1 atoms
  using lattice units in orthogonal box = (0 0 0) to (50.396842 50.396842 50.396842)
  create_atoms CPU = 0.002 seconds
Created 1 atoms
  using lattice units in orthogonal box = (0 0 0) to (50.396842 50.396842 50.396842)
  create_atoms CPU = 0.002 seconds
Created 1 atoms
  using lattice units in orthogonal box = (0 0 0) to (50.396842 50.396842 50.396842)
  create_atoms CPU = 0.002 seconds
Created 1 atoms
  using lattice units in orthogonal box = (0 0 0) to (50.396842 50.396842 50.396842)
  create_atoms CPU = 0.002 seconds
Created 1 atoms
  using lattice units in orthogonal box = (0 0 0) to (50.396842 50.396842 50.396842)
  create_atoms CPU = 0.002 seconds
Created 1 atoms
  using lattice units in orthogonal box = (0 0 0) to (50.396842 50.396842 50.396842)
  create_atoms CPU = 0.002 seconds
Created 1 atoms
  using lattice units in orthogonal box = (0 0 0) to (50.396842 50.396842 50.396842)
  create_atoms CPU = 0.002 seconds
Created 1 atoms
  using lattice units in orthogonal box = (0 0 0) to (50.396842 50.396842 50.396842)
  create_atoms CPU = 0.002 seconds
Created 1 atoms
  using lattice units in orthogonal box = (0 0 0) to (50.396842 50.396842 50.396842)
  create_atoms CPU = 0.002 seconds
Created 1 atoms
  using lattice units in orthogonal box = (0 0 0) to (50.396842 50.396842 50.396842)
  create_atoms CPU = 0.002 seconds
Created 1 atoms
  using lattice units in orthogonal box = (0 0 0) to (50.396842 50.396842 50.396842)
  create_atoms CPU = 0.002 seconds
Created 1 atoms
  using lattice units in orthogonal box = (0 0 0) to (50.396842 50.396842 50.396842)
  create_atoms CPU = 0.002 seconds
Created 1 atoms
  using lattice units in orthogonal box = (0 0 0) to (50.396842 50.396842 50.396842)
  create_atoms CPU = 0.002 seconds
Created 1 atoms
  using lattice units in orthogonal box = (0 0 0) to (50.396842 50.396842 50.396842)
  create_atoms CPU = 0.002 seconds
Created 1 atoms
  using lattice units in orthogonal box = (0 0 0) to (50.396842 50.396842 50.396842)
  create_atoms CPU = 0.002 seconds
Created 1 atoms
  using lattice units in orthogonal box = (0 0 0) to (50.396842 50.396842 50.396842)
  create_atoms CPU = 0.002 seconds
Created 1 atoms
  using lattice units in orthogonal box = (0 0 0) to (50.396842 50.396842 50.396842)
  create_atoms CPU = 0.002 seconds
Created 1 atoms
  using lattice units in orthogonal box = (0 0 0) to (50.396842 50.396842 50.396842)
  create_atoms CPU = 0.002 seconds
Created 1 atoms
  using lattice units in orthogonal box = (0 0 0) to (50.396842 50.396842 50.396842)
  create_atoms CPU = 0.002 seconds
Created 1 atoms
  using lattice units in orthogonal box = (0 0 0) to (50.396842 50.396842 50.396842)
  create_atoms CPU = 0.002 seconds
Created 1 atoms
  using lattice units in orthogonal box = (0 0 0) to (50.396842 50.396842 50.396842)
  create_atoms CPU = 0.002 seconds
Created 1 atoms
  using lattice units in orthogonal box = (0 0 0) to (50.396842 50.396842 50.396842)
  create_atoms CPU = 0.002 seconds
Created 1 atoms
  using lattice units in orthogonal box = (0 0 0) to (50.396842 50.396842 50.396842)
  create_atoms CPU = 0.002 seconds
Created 1 atoms
  using lattice units in orthogonal box = (0 0 0) to (50.396842 50.396842 50.396842)
  create_atoms CPU = 0.002 seconds
Created 1 atoms
  using lattice units in orthogonal box = (0 0 0) to (50.396842 50.396842 50.396842)
  create_atoms CPU = 0.002 seconds
Created 1 atoms
  using lattice units in orthogonal box = (0 0 0) to (50.396842 50.396842 50.396842)
  create_atoms CPU = 0.002 seconds
Created 1 atoms
  using lattice units in orthogonal box = (0 0 0) to (50.396842 50.396842 50.396842)
  create_atoms CPU = 0.002 seconds
Created 1 atoms
  using lattice units in orthogonal box = (0 0 0) to (50.396842 50.396842 50.396842)
  create_atoms CPU = 0.002 seconds
Created 1 atoms
  using lattice units in orthogonal box = (0 0 0) to (50.396842 50.396842 50.396842)
  create_atoms CPU = 0.002 seconds
Created 1 atoms
  using lattice units in orthogonal box = (0 0 0) to (50.396842 50.396842 50.396842)
  create_atoms CPU = 0.002 seconds
Created 1 atoms
  using lattice units in orthogonal box = (0 0 0) to (50.396842 50.396842 50.396842)
  create_atoms CPU = 0.002 seconds
Created 1 atoms
  using lattice units in orthogonal box = (0 0 0) to (50.396842 50.396842 50.396842)
  create_atoms CPU = 0.002 seconds
Created 1 atoms
  using lattice units in orthogonal box = (0 0 0) to (50.396842 50.396842 50.396842)
  create_atoms CPU = 0.002 seconds
Created 1 atoms
  using lattice units in orthogonal box = (0 0 0) to (50.396842 50.396842 50.396842)
  create_atoms CPU = 0.002 seconds
Created 1 atoms
  using lattice units in orthogonal box = (0 0 0) to (50.396842 50.396842 50.396842)
  create_atoms CPU = 0.002 seconds
Created 1 atoms
  using lattice units in orthogonal box = (0 0 0) to (50.396842 50.396842 50.396842)
  create_atoms CPU = 0.002 seconds
Created 1 atoms
  using lattice units in orthogonal box = (0 0 0) to (50.396842 50.396842 50.396842)
  create_atoms CPU = 0.002 seconds
Created 1 atoms
  using lattice units in orthogonal box = (0 0 0) to (50.396842 50.396842 50.396842)
  create_atoms CPU = 0.002 seconds
Created 1 atoms
  using lattice units in orthogonal box = (0 0 0) to (50.396842 50.396842 50.396842)
  create_atoms CPU = 0.003 seconds
Created 1 atoms
  using lattice units in orthogonal box = (0 0 0) to (50.396842 50.396842 50.396842)
  create_atoms CPU = 0.002 seconds
Created 1 atoms
  using lattice units in orthogonal box = (0 0 0) to (50.396842 50.396842 50.396842)
  create_atoms CPU = 0.002 seconds
Created 1 atoms
  using lattice units in orthogonal box = (0 0 0) to (50.396842 50.396842 50.396842)
  create_atoms CPU = 0.002 seconds
Created 1 atoms
  using lattice units in orthogonal box = (0 0 0) to (50.396842 50.396842 50.396842)
  create_atoms CPU = 0.002 seconds
Created 1 atoms
  using lattice units in orthogonal box = (0 0 0) to (50.396842 50.396842 50.396842)
  create_atoms CPU = 0.002 seconds
Created 1 atoms
  using lattice units in orthogonal box = (0 0 0) to (50.396842 50.396842 50.396842)
  create_atoms CPU = 0.002 seconds
Created 1 atoms
  using lattice units in orthogonal box = (0 0 0) to (50.396842 50.396842 50.396842)
  create_atoms CPU = 0.002 seconds
Created 1 atoms
  using lattice units in orthogonal box = (0 0 0) to (50.396842 50.396842 50.396842)
  create_atoms CPU = 0.002 seconds
Created 1 atoms
  using lattice units in orthogonal box = (0 0 0) to (50.396842 50.396842 50.396842)
  create_atoms CPU = 0.002 seconds
Created 1 atoms
  using lattice units in orthogonal box = (0 0 0) to (50.396842 50.396842 50.396842)
  create_atoms CPU = 0.002 seconds
Created 1 atoms
  using lattice units in orthogonal box = (0 0 0) to (50.396842 50.396842 50.396842)
  create_atoms CPU = 0.002 seconds
Created 1 atoms
  using lattice units in orthogonal box = (0 0 0) to (50.396842 50.396842 50.396842)
  create_atoms CPU = 0.002 seconds
Created 1 atoms
  using lattice units in orthogonal box = (0 0 0) to (50.396842 50.396842 50.396842)
  create_atoms CPU = 0.002 seconds
Created 1 atoms
  using lattice units in orthogonal box = (0 0 0) to (50.396842 50.396842 50.396842)
  create_atoms CPU = 0.002 seconds
Created 1 atoms
  using lattice units in orthogonal box = (0 0 0) to (50.396842 50.396842 50.396842)
  create_atoms CPU = 0.002 seconds
Created 1 atoms
  using lattice units in orthogonal box = (0 0 0) to (50.396842 50.396842 50.396842)
  create_atoms CPU = 0.002 seconds
Created 1 atoms
  using lattice units in orthogonal box = (0 0 0) to (50.396842 50.396842 50.396842)
  create_atoms CPU = 0.002 seconds
Created 1 atoms
  using lattice units in orthogonal box = (0 0 0) to (50.396842 50.396842 50.396842)
  create_atoms CPU = 0.002 seconds
Created 1 atoms
  using lattice units in orthogonal box = (0 0 0) to (50.396842 50.396842 50.396842)
  create_atoms CPU = 0.002 seconds
Created 1 atoms
  using lattice units in orthogonal box = (0 0 0) to (50.396842 50.396842 50.396842)
  create_atoms CPU = 0.002 seconds
Created 1 atoms
  using lattice units in orthogonal box = (0 0 0) to (50.396842 50.396842 50.396842)
  create_atoms CPU = 0.002 seconds
Created 0 atoms
  using lattice units in orthogonal box = (0 0 0) to (50.396842 50.396842 50.396842)
  create_atoms CPU = 0.002 seconds
Created 0 atoms
  using lattice units in orthogonal box = (0 0 0) to (50.396842 50.396842 50.396842)
  create_atoms CPU = 0.002 seconds
Created 0 atoms
  using lattice units in orthogonal box = (0 0 0) to (50.396842 50.396842 50.396842)
  create_atoms CPU = 0.002 seconds
Created 0 atoms
  using lattice units in orthogonal box = (0 0 0) to (50.396842 50.396842 50.396842)
  create_atoms CPU = 0.002 seconds
Created 0 atoms
  using lattice units in orthogonal box = (0 0 0) to (50.396842 50.396842 50.396842)
  create_atoms CPU = 0.002 seconds
Created 0 atoms
  using lattice units in orthogonal box = (0 0 0) to (50.396842 50.396842 50.396842)
  create_atoms CPU = 0.003 seconds
Created 0 atoms
  using lattice units in orthogonal box = (0 0 0) to (50.396842 50.396842 50.396842)
  create_atoms CPU = 0.002 seconds
Created 0 atoms
  using lattice units in orthogonal box = (0 0 0) to (50.396842 50.396842 50.396842)
  create_atoms CPU = 0.002 seconds
Created 0 atoms
  using lattice units in orthogonal box = (0 0 0) to (50.396842 50.396842 50.396842)
  create_atoms CPU = 0.002 seconds
Created 0 atoms
  using lattice units in orthogonal box = (0 0 0) to (50.396842 50.396842 50.396842)
  create_atoms CPU = 0.002 seconds
Created 0 atoms
  using lattice units in orthogonal box = (0 0 0) to (50.396842 50.396842 50.396842)
  create_atoms CPU = 0.002 seconds
Created 0 atoms
  using lattice units in orthogonal box = (0 0 0) to (50.396842 50.396842 50.396842)
  create_atoms CPU = 0.002 seconds
Created 0 atoms
  using lattice units in orthogonal box = (0 0 0) to (50.396842 50.396842 50.396842)
  create_atoms CPU = 0.002 seconds
Created 0 atoms
  using lattice units in orthogonal box = (0 0 0) to (50.396842 50.396842 50.396842)
  create_atoms CPU = 0.002 seconds
Created 0 atoms
  using lattice units in orthogonal box = (0 0 0) to (50.396842 50.396842 50.396842)
  create_atoms CPU = 0.002 seconds
Created 0 atoms
  using lattice units in orthogonal box = (0 0 0) to (50.396842 50.396842 50.396842)
  create_atoms CPU = 0.002 seconds
Created 0 atoms
  using lattice units in orthogonal box = (0 0 0) to (50.396842 50.396842 50.396842)
  create_atoms CPU = 0.002 seconds
Created 0 atoms
  using lattice units in orthogonal box = (0 0 0) to (50.396842 50.396842 50.396842)
  create_atoms CPU = 0.002 seconds
Created 0 atoms
  using lattice units in orthogonal box = (0 0 0) to (50.396842 50.396842 50.396842)
  create_atoms CPU = 0.002 seconds
Created 0 atoms
  using lattice units in orthogonal box = (0 0 0) to (50.396842 50.396842 50.396842)
  create_atoms CPU = 0.002 seconds
Created 0 atoms
  using lattice units in orthogonal box = (0 0 0) to (50.396842 50.396842 50.396842)
  create_atoms CPU = 0.002 seconds
Created 0 atoms
  using lattice units in orthogonal box = (0 0 0) to (50.396842 50.396842 50.396842)
  create_atoms CPU = 0.002 seconds
Created 0 atoms
  using lattice units in orthogonal box = (0 0 0) to (50.396842 50.396842 50.396842)
  create_atoms CPU = 0.002 seconds
Created 0 atoms
  using lattice units in orthogonal box = (0 0 0) to (50.396842 50.396842 50.396842)
  create_atoms CPU = 0.002 seconds
Created 0 atoms
  using lattice units in orthogonal box = (0 0 0) to (50.396842 50.396842 50.396842)
  create_atoms CPU = 0.002 seconds
Created 0 atoms
  using lattice units in orthogonal box = (0 0 0) to (50.396842 50.396842 50.396842)
  create_atoms CPU = 0.002 seconds
Created 0 atoms
  using lattice units in orthogonal box = (0 0 0) to (50.396842 50.396842 50.396842)
  create_atoms CPU = 0.002 seconds
Created 0 atoms
  using lattice units in orthogonal box = (0 0 0) to (50.396842 50.396842 50.396842)
  create_atoms CPU = 0.002 seconds
Created 0 atoms
  using lattice units in orthogonal box = (0 0 0) to (50.396842 50.396842 50.396842)
  create_atoms CPU = 0.002 seconds
Created 0 atoms
  using lattice units in orthogonal box = (0 0 0) to (50.396842 50.396842 50.396842)
  create_atoms CPU = 0.002 seconds
Created 0 atoms
  using lattice units in orthogonal box = (0 0 0) to (50.396842 50.396842 50.396842)
  create_atoms CPU = 0.002 seconds
Created 0 atoms
  using lattice units in orthogonal box = (0 0 0) to (50.396842 50.396842 50.396842)
  create_atoms CPU = 0.002 seconds
Created 0 atoms
  using lattice units in orthogonal box = (0 0 0) to (50.396842 50.396842 50.396842)
  create_atoms CPU = 0.002 seconds
Created 0 atoms
  using lattice units in orthogonal box = (0 0 0) to (50.396842 50.396842 50.396842)
  create_atoms CPU = 0.003 seconds
Created 0 atoms
  using lattice units in orthogonal box = (0 0 0) to (50.396842 50.396842 50.396842)
  create_atoms CPU = 0.002 seconds
Created 0 atoms
  using lattice units in orthogonal box = (0 0 0) to (50.396842 50.396842 50.396842)
  create_atoms CPU = 0.002 seconds
Created 0 atoms
  using lattice units in orthogonal box = (0 0 0) to (50.396842 50.396842 50.396842)
  create_atoms CPU = 0.002 seconds
Created 0 atoms
  using lattice units in orthogonal box = (0 0 0) to (50.396842 50.396842 50.396842)
  create_atoms CPU = 0.002 seconds
Created 0 atoms
  using lattice units in orthogonal box = (0 0 0) to (50.396842 50.396842 50.396842)
  create_atoms CPU = 0.002 seconds
Created 0 atoms
  using lattice units in orthogonal box = (0 0 0) to (50.396842 50.396842 50.396842)
  create_atoms CPU = 0.002 seconds
Created 0 atoms
  using lattice units in orthogonal box = (0 0 0) to (50.396842 50.396842 50.396842)
  create_atoms CPU = 0.002 seconds
Created 0 atoms
  using lattice units in orthogonal box = (0 0 0) to (50.396842 50.396842 50.396842)
  create_atoms CPU = 0.002 seconds
Created 0 atoms
  using lattice units in orthogonal box = (0 0 0) to (50.396842 50.396842 50.396842)
  create_atoms CPU = 0.002 seconds
Created 0 atoms
  using lattice units in orthogonal box = (0 0 0) to (50.396842 50.396842 50.396842)
  create_atoms CPU = 0.002 seconds
Created 0 atoms
  using lattice units in orthogonal box = (0 0 0) to (50.396842 50.396842 50.396842)
  create_atoms CPU = 0.002 seconds
Created 0 atoms
  using lattice units in orthogonal box = (0 0 0) to (50.396842 50.396842 50.396842)
  create_atoms CPU = 0.002 seconds
Created 0 atoms
  using lattice units in orthogonal box = (0 0 0) to (50.396842 50.396842 50.396842)
  create_atoms CPU = 0.002 seconds
Created 0 atoms
  using lattice units in orthogonal box = (0 0 0) to (50.396842 50.396842 50.396842)
  create_atoms CPU = 0.002 seconds
Created 0 atoms
  using lattice units in orthogonal box = (0 0 0) to (50.396842 50.396842 50.396842)
  create_atoms CPU = 0.002 seconds
Created 0 atoms
  using lattice units in orthogonal box = (0 0 0) to (50.396842 50.396842 50.396842)
  create_atoms CPU = 0.002 seconds
Created 0 atoms
  using lattice units in orthogonal box = (0 0 0) to (50.396842 50.396842 50.396842)
  create_atoms CPU = 0.002 seconds
Created 0 atoms
  using lattice units in orthogonal box = (0 0 0) to (50.396842 50.396842 50.396842)
  create_atoms CPU = 0.002 seconds
Created 0 atoms
  using lattice units in orthogonal box = (0 0 0) to (50.396842 50.396842 50.396842)
  create_atoms CPU = 0.002 seconds
Created 0 atoms
  using lattice units in orthogonal box = (0 0 0) to (50.396842 50.396842 50.396842)
  create_atoms CPU = 0.002 seconds
Created 0 atoms
  using lattice units in orthogonal box = (0 0 0) to (50.396842 50.396842 50.396842)
  create_atoms CPU = 0.002 seconds
Created 0 atoms
  using lattice units in orthogonal box = (0 0 0) to (50.396842 50.396842 50.396842)
  create_atoms CPU = 0.002 seconds
Created 0 atoms
  using lattice units in orthogonal box = (0 0 0) to (50.396842 50.396842 50.396842)
  create_atoms CPU = 0.002 seconds
Created 0 atoms
  using lattice units in orthogonal box = (0 0 0) to (50.396842 50.396842 50.396842)
  create_atoms CPU = 0.002 seconds
Created 0 atoms
  using lattice units in orthogonal box = (0 0 0) to (50.396842 50.396842 50.396842)
  create_atoms CPU = 0.002 seconds
Created 0 atoms
  using lattice units in orthogonal box = (0 0 0) to (50.396842 50.396842 50.396842)
  create_atoms CPU = 0.002 seconds
Created 0 atoms
  using lattice units in orthogonal box = (0 0 0) to (50.396842 50.396842 50.396842)
  create_atoms CPU = 0.002 seconds
Created 0 atoms
  using lattice units in orthogonal box = (0 0 0) to (50.396842 50.396842 50.396842)
  create_atoms CPU = 0.002 seconds
Created 0 atoms
  using lattice units in orthogonal box = (0 0 0) to (50.396842 50.396842 50.396842)
  create_atoms CPU = 0.002 seconds
Created 0 atoms
  using lattice units in orthogonal box = (0 0 0) to (50.396842 50.396842 50.396842)
  create_atoms CPU = 0.002 seconds
Created 0 atoms
  using lattice units in orthogonal box = (0 0 0) to (50.396842 50.396842 50.396842)
  create_atoms CPU = 0.002 seconds
Created 0 atoms
  using lattice units in orthogonal box = (0 0 0) to (50.396842 50.396842 50.396842)
  create_atoms CPU = 0.002 seconds
Created 0 atoms
  using lattice units in orthogonal box = (0 0 0) to (50.396842 50.396842 50.396842)
  create_atoms CPU = 0.002 seconds
Created 0 atoms
  using lattice units in orthogonal box = (0 0 0) to (50.396842 50.396842 50.396842)
  create_atoms CPU = 0.002 seconds
Created 0 atoms
  using lattice units in orthogonal box = (0 0 0) to (50.396842 50.396842 50.396842)
  create_atoms CPU = 0.002 seconds
Created 0 atoms
  using lattice units in orthogonal box = (0 0 0) to (50.396842 50.396842 50.396842)
  create_atoms CPU = 0.002 seconds
Created 0 atoms
  using lattice units in orthogonal box = (0 0 0) to (50.396842 50.396842 50.396842)
  create_atoms CPU = 0.002 seconds
Created 0 atoms
  using lattice units in orthogonal box = (0 0 0) to (50.396842 50.396842 50.396842)
  create_atoms CPU = 0.002 seconds
Created 0 atoms
  using lattice units in orthogonal box = (0 0 0) to (50.396842 50.396842 50.396842)
  create_atoms CPU = 0.002 seconds
Created 0 atoms
  using lattice units in orthogonal box = (0 0 0) to (50.396842 50.396842 50.396842)
  create_atoms CPU = 0.002 seconds
Created 0 atoms
  using lattice units in orthogonal box = (0 0 0) to (50.396842 50.396842 50.396842)
  create_atoms CPU = 0.002 seconds
Created 0 atoms
  using lattice units in orthogonal box = (0 0 0) to (50.396842 50.396842 50.396842)
  create_atoms CPU = 0.002 seconds
Created 0 atoms
  using lattice units in orthogonal box = (0 0 0) to (50.396842 50.396842 50.396842)
  create_atoms CPU = 0.002 seconds
Created 0 atoms
  using lattice units in orthogonal box = (0 0 0) to (50.396842 50.396842 50.396842)
  create_atoms CPU = 0.002 seconds
Created 0 atoms
  using lattice units in orthogonal box = (0 0 0) to (50.396842 50.396842 50.396842)
  create_atoms CPU = 0.002 seconds
Created 0 atoms
  using lattice units in orthogonal box = (0 0 0) to (50.396842 50.396842 50.396842)
  create_atoms CPU = 0.002 seconds
Created 0 atoms
  using lattice units in orthogonal box = (0 0 0) to (50.396842 50.396842 50.396842)
  create_atoms CPU = 0.002 seconds
Created 0 atoms
  using lattice units in orthogonal box = (0 0 0) to (50.396842 50.396842 50.396842)
  create_atoms CPU = 0.002 seconds
Created 0 atoms
  using lattice units in orthogonal box = (0 0 0) to (50.396842 50.396842 50.396842)
  create_atoms CPU = 0.002 seconds
Created 0 atoms
  using lattice units in orthogonal box = (0 0 0) to (50.396842 50.396842 50.396842)
  create_atoms CPU = 0.002 seconds
Created 0 atoms
  using lattice units in orthogonal box = (0 0 0) to (50.396842 50.396842 50.396842)
  create_atoms CPU = 0.002 seconds
Created 0 atoms
  using lattice units in orthogonal box = (0 0 0) to (50.396842 50.396842 50.396842)
  create_atoms CPU = 0.002 seconds
Created 0 atoms
  using lattice units in orthogonal box = (0 0 0) to (50.396842 50.396842 50.396842)
  create_atoms CPU = 0.002 seconds
Created 0 atoms
  using lattice units in orthogonal box = (0 0 0) to (50.396842 50.396842 50.396842)
  create_atoms CPU = 0.002 seconds
Created 0 atoms
  using lattice units in orthogonal box = (0 0 0) to (50.396842 50.396842 50.396842)
  create_atoms CPU = 0.002 seconds
Created 0 atoms
  using lattice units in orthogonal box = (0 0 0) to (50.396842 50.396842 50.396842)
  create_atoms CPU = 0.003 seconds
Created 0 atoms
  using lattice units in orthogonal box = (0 0 0) to (50.396842 50.396842 50.396842)
  create_atoms CPU = 0.002 seconds
Created 0 atoms
  using lattice units in orthogonal box = (0 0 0) to (50.396842 50.396842 50.396842)
  create_atoms CPU = 0.002 seconds
Created 0 atoms
  using lattice units in orthogonal box = (0 0 0) to (50.396842 50.396842 50.396842)
  create_atoms CPU = 0.002 seconds
Created 0 atoms
  using lattice units in orthogonal box = (0 0 0) to (50.396842 50.396842 50.396842)
  create_atoms CPU = 0.002 seconds
Created 0 atoms
  using lattice units in orthogonal box = (0 0 0) to (50.396842 50.396842 50.396842)
  create_atoms CPU = 0.002 seconds
Created 0 atoms
  using lattice units in orthogonal box = (0 0 0) to (50.396842 50.396842 50.396842)
  create_atoms CPU = 0.002 seconds
Created 0 atoms
  using lattice units in orthogonal box = (0 0 0) to (50.396842 50.396842 50.396842)
  create_atoms CPU = 0.002 seconds
Created 0 atoms
  using lattice units in orthogonal box = (0 0 0) to (50.396842 50.396842 50.396842)
  create_atoms CPU = 0.002 seconds
Created 0 atoms
  using lattice units in orthogonal box = (0 0 0) to (50.396842 50.396842 50.396842)
  create_atoms CPU = 0.002 seconds
Created 0 atoms
  using lattice units in orthogonal box = (0 0 0) to (50.396842 50.396842 50.396842)
  create_atoms CPU = 0.002 seconds
Created 0 atoms
  using lattice units in orthogonal box = (0 0 0) to (50.396842 50.396842 50.396842)
  create_atoms CPU = 0.002 seconds
Created 0 atoms
  using lattice units in orthogonal box = (0 0 0) to (50.396842 50.396842 50.396842)
  create_atoms CPU = 0.002 seconds
Created 0 atoms
  using lattice units in orthogonal box = (0 0 0) to (50.396842 50.396842 50.396842)
  create_atoms CPU = 0.002 seconds
Created 0 atoms
  using lattice units in orthogonal box = (0 0 0) to (50.396842 50.396842 50.396842)
  create_atoms CPU = 0.002 seconds
Created 0 atoms
  using lattice units in orthogonal box = (0 0 0) to (50.396842 50.396842 50.396842)
  create_atoms CPU = 0.002 seconds
Created 0 atoms
  using lattice units in orthogonal box = (0 0 0) to (50.396842 50.396842 50.396842)
  create_atoms CPU = 0.002 seconds
Created 0 atoms
  using lattice units in orthogonal box = (0 0 0) to (50.396842 50.396842 50.396842)
  create_atoms CPU = 0.002 seconds
Created 0 atoms
  using lattice units in orthogonal box = (0 0 0) to (50.396842 50.396842 50.396842)
  create_atoms CPU = 0.002 seconds
Created 0 atoms
  using lattice units in orthogonal box = (0 0 0) to (50.396842 50.396842 50.396842)
  create_atoms CPU = 0.002 seconds
Created 0 atoms
  using lattice units in orthogonal box = (0 0 0) to (50.396842 50.396842 50.396842)
  create_atoms CPU = 0.002 seconds
Created 0 atoms
  using lattice units in orthogonal box = (0 0 0) to (50.396842 50.396842 50.396842)
  create_atoms CPU = 0.002 seconds
Created 0 atoms
  using lattice units in orthogonal box = (0 0 0) to (50.396842 50.396842 50.396842)
  create_atoms CPU = 0.002 seconds
Created 0 atoms
  using lattice units in orthogonal box = (0 0 0) to (50.396842 50.396842 50.396842)
  create_atoms CPU = 0.002 seconds
Created 0 atoms
  using lattice units in orthogonal box = (0 0 0) to (50.396842 50.396842 50.396842)
  create_atoms CPU = 0.002 seconds
Created 0 atoms
[...]
  create_atoms CPU = 0.002 seconds
Created 0 atoms
  using lattice units in orthogonal box = (0 0 0) to (50.396842 50.396842 50.396842)
  create_atoms CPU = 0.002 seconds
Created 0 atoms
  using lattice units in orthogonal box = (0 0 0) to (50.396842 50.396842 50.396842)
  create_atoms CPU = 0.002 seconds
Created 0 atoms
  using lattice units in orthogonal box = (0 0 0) to (50.396842 50.396842 50.396842)
  create_atoms CPU = 0.002 seconds
Created 0 atoms
  using lattice units in orthogonal box = (0 0 0) to (50.396842 50.396842 50.396842)
  create_atoms CPU = 0.003 seconds
Created 0 atoms
  using lattice units in orthogonal box = (0 0 0) to (50.396842 50.396842 50.396842)
  create_atoms CPU = 0.002 seconds
Created 0 atoms
  using lattice units in orthogonal box = (0 0 0) to (50.396842 50.396842 50.396842)
  create_atoms CPU = 0.002 seconds
Created 0 atoms
  using lattice units in orthogonal box = (0 0 0) to (50.396842 50.396842 50.396842)
  create_atoms CPU = 0.002 seconds
Created 0 atoms
  using lattice units in orthogonal box = (0 0 0) to (50.396842 50.396842 50.396842)
  create_atoms CPU = 0.002 seconds
Created 0 atoms
  using lattice units in orthogonal box = (0 0 0) to (50.396842 50.396842 50.396842)
  create_atoms CPU = 0.002 seconds
Created 0 atoms
  using lattice units in orthogonal box = (0 0 0) to (50.396842 50.396842 50.396842)
  create_atoms CPU = 0.002 seconds
Created 0 atoms
  using lattice units in orthogonal box = (0 0 0) to (50.396842 50.396842 50.396842)
  create_atoms CPU = 0.002 seconds
Created 0 atoms
  using lattice units in orthogonal box = (0 0 0) to (50.396842 50.396842 50.396842)
  create_atoms CPU = 0.002 seconds
Created 0 atoms
  using lattice units in orthogonal box = (0 0 0) to (50.396842 50.396842 50.396842)
  create_atoms CPU = 0.002 seconds
Created 0 atoms
  using lattice units in orthogonal box = (0 0 0) to (50.396842 50.396842 50.396842)
  create_atoms CPU = 0.002 seconds
Created 0 atoms
  using lattice units in orthogonal box = (0 0 0) to (50.396842 50.396842 50.396842)
  create_atoms CPU = 0.002 seconds
Created 0 atoms
  using lattice units in orthogonal box = (0 0 0) to (50.396842 50.396842 50.396842)
  create_atoms CPU = 0.002 seconds
Created 0 atoms
  using lattice units in orthogonal box = (0 0 0) to (50.396842 50.396842 50.396842)
  create_atoms CPU = 0.002 seconds
Created 0 atoms
  using lattice units in orthogonal box = (0 0 0) to (50.396842 50.396842 50.396842)
  create_atoms CPU = 0.002 seconds
Created 0 atoms
  using lattice units in orthogonal box = (0 0 0) to (50.396842 50.396842 50.396842)
  create_atoms CPU = 0.002 seconds
Created 0 atoms
  using lattice units in orthogonal box = (0 0 0) to (50.396842 50.396842 50.396842)
  create_atoms CPU = 0.002 seconds
Created 0 atoms
  using lattice units in orthogonal box = (0 0 0) to (50.396842 50.396842 50.396842)
  create_atoms CPU = 0.002 seconds
Created 0 atoms
  using lattice units in orthogonal box = (0 0 0) to (50.396842 50.396842 50.396842)
  create_atoms CPU = 0.002 seconds
Created 0 atoms
  using lattice units in orthogonal box = (0 0 0) to (50.396842 50.396842 50.396842)
  create_atoms CPU = 0.002 seconds
Created 0 atoms
  using lattice units in orthogonal box = (0 0 0) to (50.396842 50.396842 50.396842)
  create_atoms CPU = 0.002 seconds
Created 0 atoms
  using lattice units in orthogonal box = (0 0 0) to (50.396842 50.396842 50.396842)
  create_atoms CPU = 0.002 seconds
Created 0 atoms
  using lattice units in orthogonal box = (0 0 0) to (50.396842 50.396842 50.396842)
  create_atoms CPU = 0.002 seconds
Created 0 atoms
  using lattice units in orthogonal box = (0 0 0) to (50.396842 50.396842 50.396842)
  create_atoms CPU = 0.002 seconds
Created 0 atoms
  using lattice units in orthogonal box = (0 0 0) to (50.396842 50.396842 50.396842)
  create_atoms CPU = 0.002 seconds
Created 0 atoms
  using lattice units in orthogonal box = (0 0 0) to (50.396842 50.396842 50.396842)
  create_atoms CPU = 0.002 seconds
Created 0 atoms
  using lattice units in orthogonal box = (0 0 0) to (50.396842 50.396842 50.396842)
  create_atoms CPU = 0.002 seconds
Created 0 atoms
  using lattice units in orthogonal box = (0 0 0) to (50.396842 50.396842 50.396842)
  create_atoms CPU = 0.002 seconds
Created 0 atoms
  using lattice units in orthogonal box = (0 0 0) to (50.396842 50.396842 50.396842)
  create_atoms CPU = 0.002 seconds
Created 0 atoms
  using lattice units in orthogonal box = (0 0 0) to (50.396842 50.396842 50.396842)
  create_atoms CPU = 0.002 seconds
Created 0 atoms
  using lattice units in orthogonal box = (0 0 0) to (50.396842 50.396842 50.396842)
  create_atoms CPU = 0.002 seconds
Created 0 atoms
  using lattice units in orthogonal box = (0 0 0) to (50.396842 50.396842 50.396842)
  create_atoms CPU = 0.002 seconds
Created 0 atoms
  using lattice units in orthogonal box = (0 0 0) to (50.396842 50.396842 50.396842)
  create_atoms CPU = 0.002 seconds
Created 0 atoms
  using lattice units in orthogonal box = (0 0 0) to (50.396842 50.396842 50.396842)
  create_atoms CPU = 0.002 seconds
Created 0 atoms
  using lattice units in orthogonal box = (0 0 0) to (50.396842 50.396842 50.396842)
  create_atoms CPU = 0.002 seconds
Created 0 atoms
  using lattice units in orthogonal box = (0 0 0) to (50.396842 50.396842 50.396842)
  create_atoms CPU = 0.002 seconds
Created 0 atoms
  using lattice units in orthogonal box = (0 0 0) to (50.396842 50.396842 50.396842)
  create_atoms CPU = 0.002 seconds
Created 0 atoms
  using lattice units in orthogonal box = (0 0 0) to (50.396842 50.396842 50.396842)
  create_atoms CPU = 0.002 seconds
Created 0 atoms
  using lattice units in orthogonal box = (0 0 0) to (50.396842 50.396842 50.396842)
  create_atoms CPU = 0.002 seconds
Created 0 atoms
  using lattice units in orthogonal box = (0 0 0) to (50.396842 50.396842 50.396842)
  create_atoms CPU = 0.002 seconds
Created 0 atoms
  using lattice units in orthogonal box = (0 0 0) to (50.396842 50.396842 50.396842)
  create_atoms CPU = 0.002 seconds
Created 0 atoms
  using lattice units in orthogonal box = (0 0 0) to (50.396842 50.396842 50.396842)
  create_atoms CPU = 0.002 seconds
Created 0 atoms
  using lattice units in orthogonal box = (0 0 0) to (50.396842 50.396842 50.396842)
  create_atoms CPU = 0.002 seconds
Created 0 atoms
  using lattice units in orthogonal box = (0 0 0) to (50.396842 50.396842 50.396842)
  create_atoms CPU = 0.002 seconds
Created 0 atoms
  using lattice units in orthogonal box = (0 0 0) to (50.396842 50.396842 50.396842)
  create_atoms CPU = 0.002 seconds
Created 0 atoms
  using lattice units in orthogonal box = (0 0 0) to (50.396842 50.396842 50.396842)
  create_atoms CPU = 0.002 seconds
Created 0 atoms
  using lattice units in orthogonal box = (0 0 0) to (50.396842 50.396842 50.396842)
  create_atoms CPU = 0.002 seconds
Created 0 atoms
  using lattice units in orthogonal box = (0 0 0) to (50.396842 50.396842 50.396842)
  create_atoms CPU = 0.002 seconds
Created 0 atoms
  using lattice units in orthogonal box = (0 0 0) to (50.396842 50.396842 50.396842)
  create_atoms CPU = 0.002 seconds
Created 0 atoms
  using lattice units in orthogonal box = (0 0 0) to (50.396842 50.396842 50.396842)
  create_atoms CPU = 0.002 seconds
Created 0 atoms
  using lattice units in orthogonal box = (0 0 0) to (50.396842 50.396842 50.396842)
  create_atoms CPU = 0.002 seconds
Created 0 atoms
  using lattice units in orthogonal box = (0 0 0) to (50.396842 50.396842 50.396842)
  create_atoms CPU = 0.002 seconds
Created 0 atoms
  using lattice units in orthogonal box = (0 0 0) to (50.396842 50.396842 50.396842)
  create_atoms CPU = 0.002 seconds
Created 0 atoms
  using lattice units in orthogonal box = (0 0 0) to (50.396842 50.396842 50.396842)
  create_atoms CPU = 0.002 seconds
Created 0 atoms
  using lattice units in orthogonal box = (0 0 0) to (50.396842 50.396842 50.396842)
  create_atoms CPU = 0.002 seconds
Created 0 atoms
  using lattice units in orthogonal box = (0 0 0) to (50.396842 50.396842 50.396842)
  create_atoms CPU = 0.002 seconds
Created 0 atoms
  using lattice units in orthogonal box = (0 0 0) to (50.396842 50.396842 50.396842)
  create_atoms CPU = 0.002 seconds
Created 0 atoms
  using lattice units in orthogonal box = (0 0 0) to (50.396842 50.396842 50.396842)
  create_atoms CPU = 0.002 seconds
Created 0 atoms
  using lattice units in orthogonal box = (0 0 0) to (50.396842 50.396842 50.396842)
  create_atoms CPU = 0.002 seconds
Created 0 atoms
  using lattice units in orthogonal box = (0 0 0) to (50.396842 50.396842 50.396842)
  create_atoms CPU = 0.002 seconds
Created 0 atoms
  using lattice units in orthogonal box = (0 0 0) to (50.396842 50.396842 50.396842)
  create_atoms CPU = 0.002 seconds
Created 0 atoms
  using lattice units in orthogonal box = (0 0 0) to (50.396842 50.396842 50.396842)
  create_atoms CPU = 0.002 seconds
Created 0 atoms
  using lattice units in orthogonal box = (0 0 0) to (50.396842 50.396842 50.396842)
  create_atoms CPU = 0.002 seconds
Created 0 atoms
  using lattice units in orthogonal box = (0 0 0) to (50.396842 50.396842 50.396842)
  create_atoms CPU = 0.002 seconds
Created 0 atoms
  using lattice units in orthogonal box = (0 0 0) to (50.396842 50.396842 50.396842)
  create_atoms CPU = 0.002 seconds
Created 0 atoms
  using lattice units in orthogonal box = (0 0 0) to (50.396842 50.396842 50.396842)
  create_atoms CPU = 0.002 seconds
Created 0 atoms
  using lattice units in orthogonal box = (0 0 0) to (50.396842 50.396842 50.396842)
  create_atoms CPU = 0.002 seconds
Created 0 atoms
  using lattice units in orthogonal box = (0 0 0) to (50.396842 50.396842 50.396842)
  create_atoms CPU = 0.002 seconds
Created 0 atoms
  using lattice units in orthogonal box = (0 0 0) to (50.396842 50.396842 50.396842)
  create_atoms CPU = 0.002 seconds
Created 0 atoms
  using lattice units in orthogonal box = (0 0 0) to (50.396842 50.396842 50.396842)
  create_atoms CPU = 0.002 seconds
Created 0 atoms
  using lattice units in orthogonal box = (0 0 0) to (50.396842 50.396842 50.396842)
  create_atoms CPU = 0.002 seconds
Created 0 atoms
  using lattice units in orthogonal box = (0 0 0) to (50.396842 50.396842 50.396842)
  create_atoms CPU = 0.002 seconds
Created 0 atoms
  using lattice units in orthogonal box = (0 0 0) to (50.396842 50.396842 50.396842)
  create_atoms CPU = 0.002 seconds
Created 0 atoms
  using lattice units in orthogonal box = (0 0 0) to (50.396842 50.396842 50.396842)
  create_atoms CPU = 0.002 seconds
Created 0 atoms
  using lattice units in orthogonal box = (0 0 0) to (50.396842 50.396842 50.396842)
  create_atoms CPU = 0.002 seconds
Created 0 atoms
  using lattice units in orthogonal box = (0 0 0) to (50.396842 50.396842 50.396842)
  create_atoms CPU = 0.003 seconds
Created 0 atoms
  using lattice units in orthogonal box = (0 0 0) to (50.396842 50.396842 50.396842)
  create_atoms CPU = 0.002 seconds
Created 0 atoms
  using lattice units in orthogonal box = (0 0 0) to (50.396842 50.396842 50.396842)
  create_atoms CPU = 0.002 seconds
Created 0 atoms
  using lattice units in orthogonal box = (0 0 0) to (50.396842 50.396842 50.396842)
  create_atoms CPU = 0.002 seconds
Created 0 atoms
  using lattice units in orthogonal box = (0 0 0) to (50.396842 50.396842 50.396842)
  create_atoms CPU = 0.002 seconds
Created 0 atoms
  using lattice units in orthogonal box = (0 0 0) to (50.396842 50.396842 50.396842)
  create_atoms CPU = 0.002 seconds
Created 0 atoms
  using lattice units in orthogonal box = (0 0 0) to (50.396842 50.396842 50.396842)
  create_atoms CPU = 0.002 seconds
Created 0 atoms
  using lattice units in orthogonal box = (0 0 0) to (50.396842 50.396842 50.396842)
  create_atoms CPU = 0.002 seconds
Created 0 atoms
  using lattice units in orthogonal box = (0 0 0) to (50.396842 50.396842 50.396842)
  create_atoms CPU = 0.002 seconds
Created 0 atoms
  using lattice units in orthogonal box = (0 0 0) to (50.396842 50.396842 50.396842)
  create_atoms CPU = 0.002 seconds
Created 0 atoms
  using lattice units in orthogonal box = (0 0 0) to (50.396842 50.396842 50.396842)
  create_atoms CPU = 0.002 seconds
Created 0 atoms
  using lattice units in orthogonal box = (0 0 0) to (50.396842 50.396842 50.396842)
  create_atoms CPU = 0.002 seconds
Created 0 atoms
  using lattice units in orthogonal box = (0 0 0) to (50.396842 50.396842 50.396842)
  create_atoms CPU = 0.002 seconds
Created 0 atoms
  using lattice units in orthogonal box = (0 0 0) to (50.396842 50.396842 50.396842)
  create_atoms CPU = 0.002 seconds
Created 0 atoms
  using lattice units in orthogonal box = (0 0 0) to (50.396842 50.396842 50.396842)
  create_atoms CPU = 0.002 seconds
Created 0 atoms
  using lattice units in orthogonal box = (0 0 0) to (50.396842 50.396842 50.396842)
  create_atoms CPU = 0.002 seconds
Created 0 atoms
  using lattice units in orthogonal box = (0 0 0) to (50.396842 50.396842 50.396842)
  create_atoms CPU = 0.002 seconds
Created 0 atoms
  using lattice units in orthogonal box = (0 0 0) to (50.396842 50.396842 50.396842)
  create_atoms CPU = 0.002 seconds
Created 0 atoms
  using lattice units in orthogonal box = (0 0 0) to (50.396842 50.396842 50.396842)
  create_atoms CPU = 0.002 seconds
Created 0 atoms
  using lattice units in orthogonal box = (0 0 0) to (50.396842 50.396842 50.396842)
  create_atoms CPU = 0.002 seconds
Created 0 atoms
  using lattice units in orthogonal box = (0 0 0) to (50.396842 50.396842 50.396842)
  create_atoms CPU = 0.002 seconds
Created 0 atoms
  using lattice units in orthogonal box = (0 0 0) to (50.396842 50.396842 50.396842)
  create_atoms CPU = 0.002 seconds
Created 0 atoms
  using lattice units in orthogonal box = (0 0 0) to (50.396842 50.396842 50.396842)
  create_atoms CPU = 0.002 seconds
Created 0 atoms
  using lattice units in orthogonal box = (0 0 0) to (50.396842 50.396842 50.396842)
  create_atoms CPU = 0.002 seconds
Created 0 atoms
  using lattice units in orthogonal box = (0 0 0) to (50.396842 50.396842 50.396842)
  create_atoms CPU = 0.002 seconds
Created 0 atoms
  using lattice units in orthogonal box = (0 0 0) to (50.396842 50.396842 50.396842)
  create_atoms CPU = 0.002 seconds
Created 0 atoms
  using lattice units in orthogonal box = (0 0 0) to (50.396842 50.396842 50.396842)
  create_atoms CPU = 0.002 seconds
Created 0 atoms
  using lattice units in orthogonal box = (0 0 0) to (50.396842 50.396842 50.396842)
  create_atoms CPU = 0.002 seconds
Created 0 atoms
  using lattice units in orthogonal box = (0 0 0) to (50.396842 50.396842 50.396842)
  create_atoms CPU = 0.002 seconds
Created 0 atoms
  using lattice units in orthogonal box = (0 0 0) to (50.396842 50.396842 50.396842)
  create_atoms CPU = 0.002 seconds
Created 0 atoms
  using lattice units in orthogonal box = (0 0 0) to (50.396842 50.396842 50.396842)
  create_atoms CPU = 0.002 seconds
Created 0 atoms
  using lattice units in orthogonal box = (0 0 0) to (50.396842 50.396842 50.396842)
  create_atoms CPU = 0.002 seconds
Created 0 atoms
  using lattice units in orthogonal box = (0 0 0) to (50.396842 50.396842 50.396842)
  create_atoms CPU = 0.002 seconds
Created 0 atoms
  using lattice units in orthogonal box = (0 0 0) to (50.396842 50.396842 50.396842)
  create_atoms CPU = 0.002 seconds
Created 0 atoms
  using lattice units in orthogonal box = (0 0 0) to (50.396842 50.396842 50.396842)
  create_atoms CPU = 0.002 seconds
Created 0 atoms
  using lattice units in orthogonal box = (0 0 0) to (50.396842 50.396842 50.396842)
  create_atoms CPU = 0.002 seconds
Created 0 atoms
  using lattice units in orthogonal box = (0 0 0) to (50.396842 50.396842 50.396842)
  create_atoms CPU = 0.002 seconds
Created 0 atoms
  using lattice units in orthogonal box = (0 0 0) to (50.396842 50.396842 50.396842)
  create_atoms CPU = 0.002 seconds
Created 0 atoms
  using lattice units in orthogonal box = (0 0 0) to (50.396842 50.396842 50.396842)
  create_atoms CPU = 0.002 seconds
Created 0 atoms
  using lattice units in orthogonal box = (0 0 0) to (50.396842 50.396842 50.396842)
  create_atoms CPU = 0.002 seconds
Created 0 atoms
  using lattice units in orthogonal box = (0 0 0) to (50.396842 50.396842 50.396842)
  create_atoms CPU = 0.002 seconds
Created 0 atoms
  using lattice units in orthogonal box = (0 0 0) to (50.396842 50.396842 50.396842)
  create_atoms CPU = 0.002 seconds
Created 0 atoms
  using lattice units in orthogonal box = (0 0 0) to (50.396842 50.396842 50.396842)
  create_atoms CPU = 0.002 seconds
Created 0 atoms
  using lattice units in orthogonal box = (0 0 0) to (50.396842 50.396842 50.396842)
  create_atoms CPU = 0.002 seconds
Created 0 atoms
  using lattice units in orthogonal box = (0 0 0) to (50.396842 50.396842 50.396842)
  create_atoms CPU = 0.002 seconds
Created 0 atoms
  using lattice units in orthogonal box = (0 0 0) to (50.396842 50.396842 50.396842)
  create_atoms CPU = 0.002 seconds
Created 0 atoms
  using lattice units in orthogonal box = (0 0 0) to (50.396842 50.396842 50.396842)
  create_atoms CPU = 0.002 seconds
Created 0 atoms
  using lattice units in orthogonal box = (0 0 0) to (50.396842 50.396842 50.396842)
  create_atoms CPU = 0.002 seconds
Created 0 atoms
  using lattice units in orthogonal box = (0 0 0) to (50.396842 50.396842 50.396842)
  create_atoms CPU = 0.002 seconds
Created 0 atoms
  using lattice units in orthogonal box = (0 0 0) to (50.396842 50.396842 50.396842)
  create_atoms CPU = 0.002 seconds
Created 0 atoms
  using lattice units in orthogonal box = (0 0 0) to (50.396842 50.396842 50.396842)
  create_atoms CPU = 0.002 seconds
35140 atoms in group all
32800 atoms in group atoms
2340 atoms in group polys
16800 atoms in group subA
16000 atoms in group subB
Setting atom values ...
  16800 settings made for vx
  16800 settings made for vy
  16800 settings made for vz
Setting atom values ...
  16000 settings made for vx
  16000 settings made for vy
  16000 settings made for vz
Setting atom values ...
  35140 settings made for diameter
Setting atom values ...
  35140 settings made for omega
Generated 0 of 1 mixed pair_coeff terms from geometric mixing rule
Neighbor list info ...
  update: every = 100 steps, delay = 0 steps, check = yes
  max neighbors/atom: 2000, page size: 100000
  master list distance cutoff = 2.6224615
  ghost atom cutoff = 2.6224615
  binsize = 1.3112308, bins = 39 39 39
  2 neighbor lists, perpetual/occasional/extra = 1 1 0
  (1) command create_bonds, occasional
      attributes: full, newton on
      pair build: full/bin
      stencil: full/bin/3d
      bin: standard
  (2) pair lj/cut/kk, perpetual
      attributes: half, newton on, kokkos_device
      pair build: half/bin/newton/kk/device
      stencil: half/bin/3d
      bin: kk/device
Added 4380 bonds, new total = 4380
Finding 1-2 1-3 1-4 neighbors ...
  special bond factors lj:    0        0        0       
  special bond factors coul:  0        0        0       
     4 = max # of 1-2 neighbors
    12 = max # of 1-3 neighbors
    48 = max # of 1-4 neighbors
    18 = max # of special neighbors
  special bonds CPU = 0.174 seconds
Finding 1-2 1-3 1-4 neighbors ...
  special bond factors lj:    0        1        1       
  special bond factors coul:  0        0        0       
     4 = max # of 1-2 neighbors
    12 = max # of 1-3 neighbors
    48 = max # of 1-4 neighbors
    18 = max # of special neighbors
  special bonds CPU = 0.135 seconds
Generated 0 of 1 mixed pair_coeff terms from geometric mixing rule
Neighbor list info ...
  update: every = 100 steps, delay = 0 steps, check = yes
  max neighbors/atom: 2000, page size: 100000
  master list distance cutoff = 2.6224615
  ghost atom cutoff = 6
  binsize = 1.3112308, bins = 39 39 39
  1 neighbor lists, perpetual/occasional/extra = 1 0 0
  (1) pair lj/cut/kk, perpetual
      attributes: half, newton on, kokkos_device
      pair build: half/bin/newton/kk/device
      stencil: half/bin/3d
      bin: kk/device
Setting up Verlet run ...
  Unit style    : lj
  Current step  : 0