LAMMPS (29 Aug 2024 - Development - patch_29Aug2024-409-g5d879678f6-modified)
KOKKOS mode with Kokkos version 4.3.1 is enabled (../kokkos.cpp:72)
  will use up to 1 GPU(s) per node
  using 2 OpenMP thread(s) per MPI task
package kokkos
###
# Box and units  (use LJ units and periodic boundaries)
###

units           lj
atom_style      ellipsoid
dimension	3
boundary	p p p

lattice		sc 0.75
Lattice spacing in x,y,z = 1.1006424 1.1006424 1.1006424
region		box block 0 64 0 64 0 64
create_box	1 box
Created orthogonal box = (0 0 0) to (70.441115 70.441115 70.441115)
  1 by 1 by 1 MPI processor grid
create_atoms	1 box
Created 262144 atoms
  using lattice units in orthogonal box = (0 0 0) to (70.441115 70.441115 70.441115)
  create_atoms CPU = 0.081 seconds

group           all type 1
262144 atoms in group all
set             type 1 mass 1.0
Setting atom values ...
  262144 settings made for mass
set             type 1 shape 0.4 0.4 0.8
Setting atom values ...
  262144 settings made for shape
set             type 1 quat/random 29898
Setting atom values ...
  262144 settings made for quat/random

velocity 	all create 0.1 87287 loop geom

neighbor        0.3 bin
neigh_modify    delay 0 every 100 check yes

###################################################################
# Pair interaction between non-bonded atoms
#
#  Lennard-Jones 12-6 potential with cutoff:
#  potential E=4epsilon[ (sigma/r)^12 - (sigma/r)^6]  for r<r_cut
#
#  1.12246152962189 = 2^(1/6) is the minimum of the potential

pair_style      lj/cut 1.12246152962189

#
#  pair_coeff for lj/cut, specify 4:
#    * atom type interacting with
#    * atom type
#    * epsilon (energy units)
#    * sigma (distance units)
#

pair_coeff      1 1 1.0 1.0

#
#  pair_modify shift yes adds a constant to the potential such
#  that E(r_cut)=0. Forces remains unchanged.
#

pair_modify     shift yes

###################################################
reset_atoms 	id sort yes
Resetting atom IDs ...
Generated 0 of 0 mixed pair_coeff terms from geometric mixing rule
Neighbor list info ...
  update: every = 100 steps, delay = 0 steps, check = yes
  max neighbors/atom: 2000, page size: 100000
  master list distance cutoff = 1.4224615
  ghost atom cutoff = 1.4224615
  binsize = 1.4224615, bins = 50 50 50
  1 neighbor lists, perpetual/occasional/extra = 1 0 0
  (1) pair lj/cut/kk, perpetual
      attributes: full, newton off, kokkos_device
      pair build: full/bin/kk/device
      stencil: full/bin/3d
      bin: kk/device

comm_modify cutoff 6
#comm_style tiled
#balance 1.2 rcb

###
# Set up fixes
###

fix 1 all   nve/asphere   ###NVE ensemble
#fix 2 all   langevin   1.0 1.0   2.0   424242   ###Langevin integrator Tstart Tstop 1/friction rndseed

compute ekin all ke
compute epot all pe
variable ekin equal c_ekin
variable epot equal c_epot
variable etot equal c_ekin+c_epot

fix 3 all print 5000 "$(step)  ekin = ${ekin} | epot = ${epot} | etot = ${etot}" screen yes

compute q all property/atom quatw quati quatj quatk
compute diameter all property/atom shapex shapey shapez
dump 1 all custom 5000 dump.polymer id type x y z c_q[1] c_q[2] c_q[3] c_q[4] c_diameter[1] c_diameter[2] c_diameter[3]
dump_modify 1 colname c_q[1] quatw colname c_q[2] quati colname c_q[3] quatj colname c_q[4] quatk

###################################################

timestep 0.0001 #0.012

run 20000
Generated 0 of 0 mixed pair_coeff terms from geometric mixing rule
0  ekin = 39321.4499999997 | epot = 12287.9999939545 | etot = 51609.4499939542
Per MPI rank memory allocation (min/avg/max) = 155.1 | 155.1 | 155.1 Mbytes
   Step          Temp          E_pair         E_mol          TotEng         Press     
         0   0.1            0.046875       0              0.19687443     1.3406247    
5000  ekin = 29047.6777127032 | epot = 22561.7811693922 | etot = 51609.4588820954
10000  ekin = 35907.6256450264 | epot = 15701.832815692 | etot = 51609.4584607184
15000  ekin = 36224.8842840421 | epot = 15384.5741155704 | etot = 51609.4583996125
20000  ekin = 36442.2265825 | epot = 15167.2318132392 | etot = 51609.4583957392
     20000   0.092677728    0.057858398    0              0.19687446     0.88727789   
Loop time of 34.4847 on 2 procs for 20000 steps with 262144 atoms

Performance: 5010.913 tau/day, 579.967 timesteps/s, 152.035 Matom-step/s
99.8% CPU use with 1 MPI tasks x 2 OpenMP threads

MPI task timing breakdown:
Section |  min time  |  avg time  |  max time  |%varavg| %total
---------------------------------------------------------------
Pair    | 7.7646     | 7.7646     | 7.7646     |   0.0 | 22.52
Neigh   | 0.15287    | 0.15287    | 0.15287    |   0.0 |  0.44
Comm    | 2.1329     | 2.1329     | 2.1329     |   0.0 |  6.19
Output  | 1.5882     | 1.5882     | 1.5882     |   0.0 |  4.61
Modify  | 21.656     | 21.656     | 21.656     |   0.0 | 62.80
Other   |            | 1.191      |            |       |  3.45

Nlocal:         262144 ave      262144 max      262144 min
Histogram: 1 0 0 0 0 0 0 0 0 0
Nghost:         159041 ave      159041 max      159041 min
Histogram: 1 0 0 0 0 0 0 0 0 0
Neighs:              0 ave           0 max           0 min
Histogram: 1 0 0 0 0 0 0 0 0 0
FullNghs:  2.57905e+06 ave 2.57905e+06 max 2.57905e+06 min
Histogram: 1 0 0 0 0 0 0 0 0 0

Total # of neighbors = 2579048
Ave neighs/atom = 9.8382874
Neighbor list builds = 17
Dangerous builds = 0

write_data data_out.* nocoeff
System init for write_data ...
Generated 0 of 0 mixed pair_coeff terms from geometric mixing rule
Total wall time: 0:00:41
