LAMMPS data file via write_data, version 2 Aug 2023, timestep = 20000, units = lj

5832 atoms
1 atom types
5832 ellipsoids

0 19.81156349336776 xlo xhi
0 19.81156349336776 ylo yhi
0 19.81156349336776 zlo zhi

Atoms # ellipsoid/kk

330 1 1 0.6366197723675814 5.777752053973583 0.24555919658000444 0.5948825868402797 0 0 0
332 1 1 0.6366197723675814 7.770764606969018 19.78506714474604 0.48759694511690344 0 -1 0
351 1 1 0.6366197723675814 9.176784438167163 0.6202126418256008 0.34760573467829736 0 0 0
337 1 1 0.6366197723675814 13.102766455495463 0.23169407622928168 0.4808626904829784 0 0 0
358 1 1 0.6366197723675814 16.75787843938195 0.34005766124199177 0.5984951610085122 0 0 0
18 1 1 0.6366197723675814 18.81758378097097 0.6176158553525868 0.41240173852267914 0 0 0
20 1 1 0.6366197723675814 0.8236206812922373 1.2060685406345963 0.4492373688060217 0 0 0
21 1 1 0.6366197723675814 1.9342319466875144 1.1832512791833103 0.47106157352186107 0 0 0
22 1 1 0.6366197723675814 3.146184003455426 1.1311002102001042 0.08386200814530001 0 0 0
23 1 1 0.6366197723675814 4.384566726062424 1.2941386667334374 0.1379606024609751 0 0 0
25 1 1 0.6366197723675814 6.62361471162861 1.138446184992863 0.19204139350716926 0 0 0
350 1 1 0.6366197723675814 7.606638082483625 1.117633500347083 0.7492879692698796 0 0 0
29 1 1 0.6366197723675814 11.177667557434354 1.0666063090718967 0.3296789164182828 0 0 0
354 1 1 0.6366197723675814 12.233808599715225 1.2858541314553067 0.7141265689292088 0 0 0
31 1 1 0.6366197723675814 13.154576279393549 1.2907903357150696 0.07168865920933802 0 0 0
369 1 1 0.6366197723675814 9.382180901486313 1.7372263177751697 0.4430540178897704 0 0 0
371 1 1 0.6366197723675814 10.416814215335354 1.849792917028324 0.7418875619988734 0 0 0
51 1 1 0.6366197723675814 15.17544705510996 1.7280891464559023 0.4690688701316128 0 0 0
19 1 1 0.6366197723675814 19.588391378214734 1.54358661980321 0.26562358924395185 -1 0 0
39 1 1 0.6366197723675814 1.4749211505271695 2.382697975056127 0.4553122193532558 0 0 0
42 1 1 0.6366197723675814 5.128522793480525 2.3436693541885627 0.14357532663834774 0 0 0
48 1 1 0.6366197723675814 11.581997036436245 2.2263497790906634 0.4952690899829852 0 0 0
68 1 1 0.6366197723675814 14.515780309568374 2.792230842616988 0.18320016025390046 0 0 0
52 1 1 0.6366197723675814 16.233722063138803 2.2747447328053765 0.16227546180371039 0 0 0
54 1 1 0.6366197723675814 18.220971789102634 2.923102599172966 19.766464512034783 0 0 -1
378 1 1 0.6366197723675814 18.964631798797303 2.4144855653087727 0.5596164031308724 0 0 0
55 1 1 0.6366197723675814 0.13270020983295325 3.141731828346428 0.2090977968261752 0 0 0
56 1 1 0.6366197723675814 1.3561837241826489 3.4881197892601823 0.2650687736069538 0 0 0
57 1 1 0.6366197723675814 2.353047957044545 3.1308467491564924 0.36351701579598156 0 0 0
58 1 1 0.6366197723675814 3.4748756547604525 3.564595404027179 0.09428942346390397 0 0 0
383 1 1 0.6366197723675814 4.474968530162372 3.2196383819681484 0.7148014870549613 0 0 0
60 1 1 0.6366197723675814 5.68291229415411 3.299080865880515 0.3671225766443219 0 0 0
61 1 1 0.6366197723675814 6.857224462741229 2.979181151571775 0.2805575124177173 0 0 0
62 1 1 0.6366197723675814 7.93956099793034 2.9204526580073074 0.4211762848176534 0 0 0
64 1 1 0.6366197723675814 10.127199087119871 3.114924241679795 0.430027466518109 0 0 0
65 1 1 0.6366197723675814 11.183223732475602 3.2039830750710747 0.08425170125616177 0 0 0
390 1 1 0.6366197723675814 12.213273186676123 3.468210852298279 0.5491508130572872 0 0 0
67 1 1 0.6366197723675814 13.27431251791112 3.2726009114398793 0.31224907016595843 0 0 0
77 1 1 0.6366197723675814 4.288409416414646 4.347119724710323 0.07762549334453446 0 0 0
402 1 1 0.6366197723675814 5.333097367404667 4.405195989581864 0.6453433634919624 0 0 0
80 1 1 0.6366197723675814 7.323286898045556 3.987877275057552 19.7973109298762 0 0 -1
405 1 1 0.6366197723675814 8.616272521713233 3.8186756116565452 0.5795371840947836 0 0 0
83 1 1 0.6366197723675814 10.692005523829675 4.405985368936912 0.39325108778621454 0 0 0
85 1 1 0.6366197723675814 13.115515100910148 4.3595754355730465 0.08924250365232271 0 0 0
86 1 1 0.6366197723675814 14.441497311980301 4.145955418516466 0.27043845390767524 0 0 0
70 1 1 0.6366197723675814 16.322968344588606 3.6214311976020364 0.5079175408754276 0 0 0
89 1 1 0.6366197723675814 18.025810778485404 4.119632602156945 0.03502851676011051 0 0 0
72 1 1 0.6366197723675814 19.243464674898828 4.074535209813858 0.20429553801216724 0 0 0
74 1 1 0.6366197723675814 0.9439374682575069 4.834552944859748 0.4631792753412767 0 0 0
75 1 1 0.6366197723675814 1.9772418183095841 4.522970456057809 0.2520877515175331 0 0 0
97 1 1 0.6366197723675814 7.202339026667354 5.130679993482523 0.19085060245138352 0 0 0
406 1 1 0.6366197723675814 9.337754743262044 5.012606737244985 0.6902418536598248 0 0 0
412 1 1 0.6366197723675814 16.34432005968091 4.889124723237076 0.5756796425401102 0 0 0
91 1 1 0.6366197723675814 0.3083389480119726 5.796086719922833 0.37313948540451214 0 0 0
93 1 1 0.6366197723675814 2.5187881249851793 5.616138225156625 0.5022705830361948 0 0 0
94 1 1 0.6366197723675814 3.701024077364383 5.672957228815589 0.22931965451853806 0 0 0
95 1 1 0.6366197723675814 4.9517880627728275 5.50079293895801 0.12973037557805747 0 0 0
96 1 1 0.6366197723675814 6.025591635929433 5.221901265789925 0.2183472643375518 0 0 0
99 1 1 0.6366197723675814 8.928008963152804 5.839731200959562 0.13061532540634543 0 0 0
100 1 1 0.6366197723675814 10.388245546927028 5.421441532119045 0.11366422556623089 0 0 0
101 1 1 0.6366197723675814 11.494428589852882 5.184592948672132 0.3139121822352463 0 0 0
102 1 1 0.6366197723675814 12.532646150834278 5.078761624906036 0.6531488473201585 0 0 0
103 1 1 0.6366197723675814 13.493024582081324 5.630530076671104 0.055428285485646454 0 0 0
105 1 1 0.6366197723675814 15.562160354331672 5.804394649801432 0.2590278447209705 0 0 0
107 1 1 0.6366197723675814 17.740839840074504 5.5770156871026275 0.0883982363424914 0 0 0
113 1 1 0.6366197723675814 4.408311620893456 6.550969507301637 0.2573206778560843 0 0 0
115 1 1 0.6366197723675814 6.5967097217633395 6.129875595969264 0.4292857788873433 0 0 0
120 1 1 0.6366197723675814 11.764426458488991 6.370281530491923 0.304845030391395 0 0 0
428 1 1 0.6366197723675814 14.206321431263396 6.260732896595358 0.7164001991348037 0 0 0
106 1 1 0.6366197723675814 16.604573311941827 6.202691978779337 0.05525271470589977 0 0 0
108 1 1 0.6366197723675814 18.86501434961438 6.062974099074612 0.6101098465019142 0 0 0
112 1 1 0.6366197723675814 3.136789848666138 6.740748598767003 0.21798790378133567 0 0 0
116 1 1 0.6366197723675814 7.429666251276471 6.900458161437722 0.35048984741579836 0 0 0
118 1 1 0.6366197723675814 9.90388089475784 6.703337026293222 0.4098470329482644 0 0 0
137 1 1 0.6366197723675814 11.060084727969638 7.254536541635425 0.43988127704129854 0 0 0
121 1 1 0.6366197723675814 13.040037684709988 6.612776884775147 0.3093026824707217 0 0 0
123 1 1 0.6366197723675814 15.099926704574475 6.911741589848706 0.12071461819306797 0 0 0
126 1 1 0.6366197723675814 18.193740216133243 6.964483189525283 0.4579001468944852 0 0 0
128 1 1 0.6366197723675814 0.6461128240631923 7.645363273142714 0.04700206461107415 0 0 0
130 1 1 0.6366197723675814 2.6726743904672343 7.751898588146576 0.12077711323235071 0 0 0
455 1 1 0.6366197723675814 4.41953086142879 7.686080620290172 0.6609590571968662 0 0 0
458 1 1 0.6366197723675814 7.767890650248114 8.062650161524813 0.7310961479635368 0 0 0
460 1 1 0.6366197723675814 10.076553722596053 7.801190904879538 0.6883796636128333 0 0 0
462 1 1 0.6366197723675814 12.1528708958857 7.484393572806478 0.602062800949595 0 0 0
140 1 1 0.6366197723675814 14.047682581575375 7.453236998206701 0.3516056191525924 0 0 0
124 1 1 0.6366197723675814 16.50041654660699 7.332281429464623 0.03621069804625676 0 0 0
143 1 1 0.6366197723675814 17.386796302666106 7.898266181657504 0.45509947938867584 0 0 0
127 1 1 0.6366197723675814 18.99920237592276 7.6643964512786456 0.005246359208828363 -1 0 0
453 1 1 0.6366197723675814 1.6943529328946505 8.175537182898072 0.48178823088153794 0 0 0
149 1 1 0.6366197723675814 3.5862171173846105 8.33377776677538 0.21620755063704392 0 0 0
151 1 1 0.6366197723675814 6.055614752803441 8.394336934058133 0.034446785899214426 0 0 0
158 1 1 0.6366197723675814 14.249282874043805 8.500730335375765 0.604234960764412 0 0 0
144 1 1 0.6366197723675814 18.229618566594873 8.658285765974194 0.24653176306583688 0 0 0
145 1 1 0.6366197723675814 19.80398935402373 8.75475617726508 0.12690294107318967 -1 0 0
147 1 1 0.6366197723675814 1.8810478907479922 9.413712014039605 0.256221076166128 0 0 0
167 1 1 0.6366197723675814 3.9388784976328814 9.360456223290397 0.4837138819290309 0 0 0
474 1 1 0.6366197723675814 4.9267710507856926 8.94268313311 0.5394102095281785 0 0 0
152 1 1 0.6366197723675814 7.247981929013248 9.065018127738394 0.3371812553512195 0 0 0
153 1 1 0.6366197723675814 8.485902337897148 9.215164272207664 0.2929323995032324 0 0 0
478 1 1 0.6366197723675814 10.441210643287004 9.013694180810099 0.646467769372668 0 0 0
173 1 1 0.6366197723675814 11.390944902595312 9.275325482848235 0.1257652448569264 0 0 0
159 1 1 0.6366197723675814 15.356758743322034 8.844595575980353 0.572464900798498 0 0 0
161 1 1 0.6366197723675814 17.206517577155036 9.115607253061258 0.0783359040904478 0 0 0
164 1 1 0.6366197723675814 0.7730440746401795 9.75957952804982 0.35928343705792887 0 0 0
169 1 1 0.6366197723675814 6.268617975062994 9.629584318704891 0.12071530586534183 0 0 0
494 1 1 0.6366197723675814 7.597815215535053 10.058154553529217 0.6962464718032936 0 0 0
172 1 1 0.6366197723675814 9.809730452717018 9.903712344082145 0.3242185151892259 0 0 0
191 1 1 0.6366197723675814 10.895025885597592 10.256515998650453 0.6112407726990728 0 0 0
175 1 1 0.6366197723675814 13.071061276093245 10.057748169822695 0.4258618882751994 0 0 0
176 1 1 0.6366197723675814 14.128091832959303 9.683090479433858 0.10443606325877118 0 0 0
160 1 1 0.6366197723675814 16.256503484756166 9.571564035954387 0.4317128475368607 0 0 0
486 1 1 0.6366197723675814 18.138902474305265 9.798647045864147 0.2627139471058432 0 0 0
185 1 1 0.6366197723675814 4.320335127052768 10.998191571696559 0.12284139502651026 0 0 0
492 1 1 0.6366197723675814 5.075276327522311 10.326778822547244 0.4989293314774361 0 0 0
192 1 1 0.6366197723675814 12.036515319134931 10.477650966033497 0.08075021400849476 0 0 0
194 1 1 0.6366197723675814 14.350630123219693 10.734989253247846 0.24600453968965938 0 0 0
178 1 1 0.6366197723675814 16.43872926773936 10.69604834785924 0.25143720256076696 0 0 0
200 1 1 0.6366197723675814 0.7812927108244354 11.85222260580482 0.023406960337919003 0 0 0
507 1 1 0.6366197723675814 1.8542840615667433 11.474668422125635 0.4230566025939096 0 0 0
511 1 1 0.6366197723675814 6.7640229562421395 10.967693957922913 0.6774946939354533 0 0 0
513 1 1 0.6366197723675814 8.863139026993345 11.016019926719679 0.5745119242908656 0 0 0
195 1 1 0.6366197723675814 15.527367672881288 11.122822236332809 0.7050001908849748 0 0 0
197 1 1 0.6366197723675814 17.531547281645988 11.056252924722068 0.348176825964182 0 0 0
198 1 1 0.6366197723675814 18.56072608587672 11.457501056531072 0.5099075959792626 0 0 0
204 1 1 0.6366197723675814 5.595334578527925 11.878955449301131 0.3236452352289405 0 0 0
529 1 1 0.6366197723675814 6.689075201717637 12.161998879738723 0.6705843632955426 0 0 0
530 1 1 0.6366197723675814 7.7441558750575386 11.842076148877178 0.5806535625811563 0 0 0
207 1 1 0.6366197723675814 8.71657673906673 12.337503525733602 19.7939584711346 0 0 -1
208 1 1 0.6366197723675814 9.851409686263866 12.215455039031678 0.08837284584889703 0 0 0
210 1 1 0.6366197723675814 11.967525373939118 11.676523312264216 0.07450780283284483 0 0 0
211 1 1 0.6366197723675814 12.761160430709321 12.507526855938714 0.03975227212394342 0 0 0
212 1 1 0.6366197723675814 13.957237467106534 11.94836678189059 0.18632674866131718 0 0 0
214 1 1 0.6366197723675814 15.904200135525922 12.558452952132539 19.806847367118465 0 0 -1
215 1 1 0.6366197723675814 17.339023106969925 12.260663551899412 0.15344245912081392 0 0 0
201 1 1 0.6366197723675814 1.9012826414647535 12.787267072989948 0.23406970544258096 0 0 0
544 1 1 0.6366197723675814 3.5855188928532833 12.762758973667426 0.5039326676708317 0 0 0
545 1 1 0.6366197723675814 4.6346433455965315 13.037219329128868 0.6280670120627957 0 0 0
227 1 1 0.6366197723675814 10.57406796360372 13.03491383910531 0.24510873433910377 0 0 0
228 1 1 0.6366197723675814 11.714682793458332 13.189801604966597 0.13040580078361036 0 0 0
230 1 1 0.6366197723675814 14.400342069474183 13.090751191478237 0.17830370461088782 0 0 0
233 1 1 0.6366197723675814 17.70779641026791 13.199031639134105 0.7263252912016517 0 0 0
216 1 1 0.6366197723675814 18.412651638104375 12.524348733791431 0.2063892749308768 0 0 0
199 1 1 0.6366197723675814 19.642752779701564 12.460592393932219 0.21293120020110648 -1 0 0
542 1 1 0.6366197723675814 0.9194361752002285 13.317610942979647 0.7793230604516357 0 0 0
220 1 1 0.6366197723675814 3.1710680614850912 13.860159653637258 0.13522768135753577 0 0 0
221 1 1 0.6366197723675814 4.292730516795974 13.946224250608468 0.04068919753398543 0 0 0
222 1 1 0.6366197723675814 5.4940736948449755 13.431219928227524 0.10234871380118013 0 0 0
548 1 1 0.6366197723675814 7.414220797120754 13.602143168212741 0.4953567506866685 0 0 0
553 1 1 0.6366197723675814 13.362668641169288 13.27785348663003 0.5379084841813935 0 0 0
217 1 1 0.6366197723675814 19.55417292763489 13.6312901744974 0.4934176553678196 -1 0 0
236 1 1 0.6366197723675814 1.0522852737878676 14.494533098094765 0.22630773714439378 0 0 0
244 1 1 0.6366197723675814 9.943107080605646 13.89569448766891 0.0776485886046406 0 0 0
569 1 1 0.6366197723675814 10.97425439960325 14.229946186184526 0.4206062982968602 0 0 0
247 1 1 0.6366197723675814 12.904563095987058 14.32071469488261 0.2647616040444986 0 0 0
250 1 1 0.6366197723675814 16.122364805242803 14.541431556322655 0.3227628482298608 0 0 0
238 1 1 0.6366197723675814 3.5565729452809847 14.888200759504887 0.39645455386464235 0 0 0
239 1 1 0.6366197723675814 4.813745456156791 14.991366949932798 0.16610467930772402 0 0 0
259 1 1 0.6366197723675814 6.736293408830183 15.315394660643602 0.42068982675165667 0 0 0
262 1 1 0.6366197723675814 9.913462465713575 15.05740130039815 0.09912001242716553 0 0 0
266 1 1 0.6366197723675814 14.079793099612063 14.886357705832197 0.20141419964434124 0 0 0
267 1 1 0.6366197723675814 15.30017859778246 15.125852314903305 0.7170620123634482 0 0 0
577 1 1 0.6366197723675814 0.32628022341002694 15.403283134676576 0.6448475964815671 0 0 0
582 1 1 0.6366197723675814 5.243230317277727 15.94909928014257 0.6748338350760874 0 0 0
260 1 1 0.6366197723675814 7.581587943707546 16.031723850723797 0.4087286522191373 0 0 0
264 1 1 0.6366197723675814 11.765827076795992 15.548190332747176 0.2569644711973134 0 0 0
589 1 1 0.6366197723675814 12.87674810618846 15.389274748376545 0.6258898562666241 0 0 0
284 1 1 0.6366197723675814 13.768354256923267 16.13359781236008 0.4308745715615836 0 0 0
268 1 1 0.6366197723675814 16.41448906987256 15.794746217782764 0.2238915106612208 0 0 0
287 1 1 0.6366197723675814 18.020719747386124 15.842431556228425 0.147343676162167 0 0 0
271 1 1 0.6366197723675814 0.2194212397668172 16.511500321911996 0.32548529743209587 0 0 0
276 1 1 0.6366197723675814 6.191256409938955 16.43946175555595 0.13899918720074272 0 0 0
603 1 1 0.6366197723675814 9.15261783461769 16.521054636931773 0.5231397197298654 0 0 0
280 1 1 0.6366197723675814 10.399975690593584 16.330032962766644 0.29082725639768675 0 0 0
606 1 1 0.6366197723675814 12.134779726355577 16.877872366591365 0.3268185707026131 0 0 0
285 1 1 0.6366197723675814 14.906566381186087 16.232292428023094 0.19350728788706725 0 0 0
288 1 1 0.6366197723675814 18.770340392354047 16.666193325020338 0.39796455881197074 0 0 0
291 1 1 0.6366197723675814 1.688151558783405 17.26218961416566 0.35210769235787126 0 0 0
292 1 1 0.6366197723675814 2.791796529740953 17.540110094135535 0.08273359033164271 0 0 0
275 1 1 0.6366197723675814 4.343576513779623 16.99968843145495 0.1630285001341476 0 0 0
295 1 1 0.6366197723675814 6.156134378844315 17.573381726828384 0.6794058574871096 0 0 0
298 1 1 0.6366197723675814 9.967510616409896 17.41270459735922 0.33470394217791855 0 0 0
623 1 1 0.6366197723675814 11.051212991992683 17.424370748869094 0.6281874292504541 0 0 0
628 1 1 0.6366197723675814 15.960812451192943 17.239496943033593 0.7594864693272682 0 0 0
305 1 1 0.6366197723675814 17.61645502990185 17.03029062603192 0.10690378726979104 0 0 0
310 1 1 0.6366197723675814 3.4808963733593647 18.269149291378366 0.5740414137472095 0 0 0
293 1 1 0.6366197723675814 4.577368460427802 18.167036728948286 0.10916866269654987 0 0 0
620 1 1 0.6366197723675814 7.467330628057072 17.968579188760604 0.5995526403892241 0 0 0
300 1 1 0.6366197723675814 12.570832228429083 17.945147208102757 0.052431023153621595 0 0 0
626 1 1 0.6366197723675814 14.263358103118993 18.227878453325975 0.37324054217984076 0 0 0
304 1 1 0.6366197723675814 16.56818664797935 17.930175604346466 0.03666278004695435 0 0 0
306 1 1 0.6366197723675814 18.560665534471806 17.778120018001584 0.39428375942699156 0 0 0
308 1 1 0.6366197723675814 1.3559088811019249 18.365490897359198 0.2990924197078279 0 0 0
309 1 1 0.6366197723675814 2.4164045588112724 18.57567226353713 0.6371762114143718 0 0 0
312 1 1 0.6366197723675814 5.8479232414283535 18.577001293317352 0.19250049760079693 0 0 0
314 1 1 0.6366197723675814 8.648525389063531 18.609630823442657 0.18162565944707645 0 0 0
316 1 1 0.6366197723675814 10.519387276764306 18.380746240191726 0.3561250165485682 0 0 0
317 1 1 0.6366197723675814 11.598985415128505 18.569433129649266 0.18572104121512203 0 0 0
322 1 1 0.6366197723675814 16.81528391277643 19.049683315518543 0.220099098657732 0 0 0
307 1 1 0.6366197723675814 19.600320908171977 18.310208009533945 0.22703657562057855 -1 0 0
3 1 1 0.6366197723675814 2.081619985524813 19.583307586580993 0.29510873712116126 0 -1 0
4 1 1 0.6366197723675814 3.3442861766544176 19.458017533248434 0.2623263270694132 0 -1 0
311 1 1 0.6366197723675814 4.853642514396146 19.21602269828538 0.2774060792508796 0 0 0
7 1 1 0.6366197723675814 6.742602538774817 19.524808363003416 0.09661765152742437 0 -1 0
10 1 1 0.6366197723675814 9.786107208654872 19.266253778186588 0.07686286744178257 0 -1 0
335 1 1 0.6366197723675814 10.593647767091756 0.03818131953477982 0.6973340395826997 0 0 0
12 1 1 0.6366197723675814 11.713619072185226 19.755061504490847 0.43963794724469035 0 -1 0
318 1 1 0.6366197723675814 12.581564700616614 19.056822521378717 0.10013031352121743 0 0 0
644 1 1 0.6366197723675814 13.825363778482803 19.244007423553658 0.2677849832643902 0 0 0
15 1 1 0.6366197723675814 15.86388128315204 19.74101736059358 0.18802744182690087 0 -1 0
17 1 1 0.6366197723675814 17.789654449305875 19.66082096972373 0.49453216181238974 0 -1 0
325 1 1 0.6366197723675814 19.551253069335825 19.529205279395146 0.5199791176202371 -1 -1 0
344 1 1 0.6366197723675814 1.0083525227219006 0.5122732685776658 1.3820477316335924 0 0 0
327 1 1 0.6366197723675814 2.1017022983293647 0.6515190852518495 1.4678678726122354 0 0 0
346 1 1 0.6366197723675814 3.134664476538442 0.5855822045815093 1.0304694967611372 0 0 0
5 1 1 0.6366197723675814 4.179030127056377 0.24277857272872336 0.7749402065446781 0 0 0
331 1 1 0.6366197723675814 6.789566090596566 0.2798876470897468 1.084057114902487 0 0 0
334 1 1 0.6366197723675814 9.735676816870159 0.24177630628362679 1.400080197954916 0 0 0
336 1 1 0.6366197723675814 12.350747229362527 0.15128028296866156 1.3480989693410474 0 0 0
338 1 1 0.6366197723675814 13.967179759866772 0.22830279421265873 1.3658340065016543 0 0 0
348 1 1 0.6366197723675814 5.302188186797871 1.2334650027561354 0.8789834905579975 0 0 0
349 1 1 0.6366197723675814 6.469527075463222 1.264306671018573 1.4327789688794508 0 0 0
353 1 1 0.6366197723675814 10.625037282635041 0.8850182881321671 1.371294445783983 0 0 0
355 1 1 0.6366197723675814 13.163025892146836 1.054284204647818 1.2732114441552955 0 0 0
356 1 1 0.6366197723675814 14.489009344716619 1.1049765464411025 0.8811847927000622 0 0 0
357 1 1 0.6366197723675814 15.60249728332516 0.8083022838120614 1.0081915737643117 0 0 0
359 1 1 0.6366197723675814 17.792903096866702 1.047768024909461 0.9210076781920187 0 0 0
343 1 1 0.6366197723675814 19.800678973411966 0.7368718374161718 1.2228513271355126 -1 0 0
362 1 1 0.6366197723675814 1.408215604994227 1.5661193988299467 1.3978616945039166 0 0 0
345 1 1 0.6366197723675814 2.416186446913234 1.9582733258580909 1.10382850958823 0 0 0
364 1 1 0.6366197723675814 3.8236622789260446 1.5107092157935529 1.059003106350687 0 0 0
365 1 1 0.6366197723675814 4.863370931706113 2.172814200617425 1.1985821899195546 0 0 0
366 1 1 0.6366197723675814 5.967639430514366 2.136202479084217 0.91102619555471 0 0 0
367 1 1 0.6366197723675814 7.170040837179893 2.146843269890515 1.0385588794874265 0 0 0
368 1 1 0.6366197723675814 8.379896512804395 1.9606135909588602 0.836117976332005 0 0 0
373 1 1 0.6366197723675814 13.34297396481091 2.1394084455802886 0.841471096803342 0 0 0
374 1 1 0.6366197723675814 14.515715441926979 2.2381938476352707 1.2618665557161248 0 0 0
375 1 1 0.6366197723675814 15.584604216580852 1.9341255647434497 1.4682010917227597 0 0 0
376 1 1 0.6366197723675814 16.68619573984483 1.6210260732810642 0.9918059652541173 0 0 0
377 1 1 0.6366197723675814 17.869411338756045 2.1692658339054267 0.8191723711139646 0 0 0
360 1 1 0.6366197723675814 18.78717326738759 1.453944885559915 1.0926429190051845 0 0 0
361 1 1 0.6366197723675814 0.5102024298467893 2.133143399165093 0.9713621277043264 0 0 0
363 1 1 0.6366197723675814 3.437415107641393 2.646481764579162 1.0206037071850103 0 0 0
387 1 1 0.6366197723675814 9.12200667522571 2.8393176141984307 0.7653555148910828 0 0 0
394 1 1 0.6366197723675814 16.428984693626152 2.7341928155863013 1.1613939445869397 0 0 0
705 1 1 0.6366197723675814 2.46082244025383 3.0448578658356817 1.52074776278493 0 0 0
384 1 1 0.6366197723675814 5.317259391791984 3.4829972189707856 1.3746574306441113 0 0 0
385 1 1 0.6366197723675814 6.4348249384194025 3.305858099556168 1.282036052509421 0 0 0
386 1 1 0.6366197723675814 7.816508988860788 3.560666149146734 1.2941010454709663 0 0 0
389 1 1 0.6366197723675814 11.225140028225209 3.0103201067543974 1.1875953651848716 0 0 0
392 1 1 0.6366197723675814 14.240912887712435 3.431378665037428 1.1086082679082454 0 0 0
393 1 1 0.6366197723675814 15.328130950094188 3.0197188286293417 1.0064936608698878 0 0 0
395 1 1 0.6366197723675814 17.400124067679872 3.1891857789782603 0.8238204095183498 0 0 0
396 1 1 0.6366197723675814 18.556957682830483 3.5038827292993564 0.862048694827267 0 0 0
703 1 1 0.6366197723675814 19.56229059456712 3.091548097719942 1.2849765900168133 -1 0 0
379 1 1 0.6366197723675814 0.5503795689841875 3.833787731117128 1.040565533637181 0 0 0
398 1 1 0.6366197723675814 1.7959651487811852 3.9341326420812774 1.2446849967985376 0 0 0
381 1 1 0.6366197723675814 2.824456072667183 4.070686281783184 0.8280428031440308 0 0 0
382 1 1 0.6366197723675814 3.7730528824979834 3.6832494150457475 1.337661264939691 0 0 0
403 1 1 0.6366197723675814 6.5740516225273575 4.342697334459893 0.7680177264316428 0 0 0
388 1 1 0.6366197723675814 9.845504619711967 4.046814202943747 1.0212438063691587 0 0 0
409 1 1 0.6366197723675814 13.032430206836468 4.280726670792859 1.2492074263759534 0 0 0
411 1 1 0.6366197723675814 15.28784380705046 4.271043155126819 1.1152203046964948 0 0 0
413 1 1 0.6366197723675814 17.235662944361916 4.361678180538268 0.7890731669387313 0 0 0
399 1 1 0.6366197723675814 2.1957509626278493 4.989075267298032 1.3426416500445901 0 0 0
400 1 1 0.6366197723675814 3.6979604066156475 4.808318334727284 1.0020461678951411 0 0 0
404 1 1 0.6366197723675814 7.939460482403368 4.767690449432543 1.0160024281184563 0 0 0
425 1 1 0.6366197723675814 10.535809812711184 5.044826931908442 1.3942538854927042 0 0 0
408 1 1 0.6366197723675814 11.748329579848889 4.478040922628342 1.1517293362641776 0 0 0
410 1 1 0.6366197723675814 14.115845671599345 4.47644052664543 1.4216196947864352 0 0 0
414 1 1 0.6366197723675814 18.224595995483302 4.957219545084233 0.902273006904854 0 0 0
73 1 1 0.6366197723675814 19.470218439742908 5.051565415367877 0.8865746272439599 -1 0 0
416 1 1 0.6366197723675814 1.483775261733394 5.737275617258179 0.8925082667100445 0 0 0
418 1 1 0.6366197723675814 3.2978013234095775 5.707188568956032 1.2956509175977085 0 0 0
419 1 1 0.6366197723675814 4.430402709286853 5.732558217549296 1.1913281042915311 0 0 0
420 1 1 0.6366197723675814 5.558549273096086 5.752857672833267 1.1565171279318198 0 0 0
421 1 1 0.6366197723675814 6.8333438349023545 5.335852319632975 1.2694999042471604 0 0 0
426 1 1 0.6366197723675814 11.637679319867125 5.628061828179888 1.2825548700859348 0 0 0
427 1 1 0.6366197723675814 13.595552420511778 5.5537459390628605 1.2566875264506994 0 0 0
429 1 1 0.6366197723675814 14.672830669993509 5.217476873509851 0.7693322096901206 0 0 0
430 1 1 0.6366197723675814 16.210925317851057 5.792604174860308 1.2121474235502723 0 0 0
431 1 1 0.6366197723675814 17.362018736078152 5.840804170037004 1.1422563537160544 0 0 0
434 1 1 0.6366197723675814 1.1447712753251533 6.670537851111348 1.4884262682250462 0 0 0
439 1 1 0.6366197723675814 6.978287899338575 6.6047127145472135 1.456114346614422 0 0 0
422 1 1 0.6366197723675814 7.829206038352537 5.910763311936225 0.8628740888492159 0 0 0
424 1 1 0.6366197723675814 9.726598335217465 5.932778932426271 1.2681959256332103 0 0 0
443 1 1 0.6366197723675814 10.844390236973647 6.282814476715609 0.931781675296804 0 0 0
444 1 1 0.6366197723675814 12.64046212059742 6.138594763497832 1.2524322156221577 0 0 0
753 1 1 0.6366197723675814 15.085400912496153 6.183162544009257 1.3919325433406655 0 0 0
433 1 1 0.6366197723675814 0.12089116525963133 6.92427146666013 0.9115040904205969 0 0 0
435 1 1 0.6366197723675814 1.905712433172723 6.893211584438103 0.7538644048084667 0 0 0
436 1 1 0.6366197723675814 3.5603811389054343 6.770111533881143 1.2595817922091557 0 0 0
437 1 1 0.6366197723675814 4.7564787985394 6.826475506651774 1.299310599321619 0 0 0
438 1 1 0.6366197723675814 5.8460115570512885 6.802692764544044 0.8795747932374415 0 0 0
440 1 1 0.6366197723675814 7.957776052104223 7.076555417910899 1.3076634889585357 0 0 0
441 1 1 0.6366197723675814 8.853758943190023 6.675692373572747 0.8200167979083248 0 0 0
445 1 1 0.6366197723675814 13.431473320938107 6.934533662984916 1.367418860219037 0 0 0
446 1 1 0.6366197723675814 14.822350386092301 7.259919805554769 1.1111474645021109 0 0 0
447 1 1 0.6366197723675814 16.0087935344767 6.809124889213868 0.8904528970015939 0 0 0
448 1 1 0.6366197723675814 17.13171311065347 6.874333822916014 0.8439998503608727 0 0 0
452 1 1 0.6366197723675814 1.0427795597992324 7.791819223097442 1.2777802547322756 0 0 0
454 1 1 0.6366197723675814 2.8926740489471574 7.73979093482235 1.1933717674055733 0 0 0
456 1 1 0.6366197723675814 5.493784736349215 7.990943814350614 0.8726340760032948 0 0 0
457 1 1 0.6366197723675814 6.6288641384290905 7.71761420440845 0.8574210117079547 0 0 0
459 1 1 0.6366197723675814 8.916376557667272 7.823449300045845 0.7827151470369247 0 0 0
463 1 1 0.6366197723675814 13.056989798761597 8.190143533020485 0.856286636292067 0 0 0
465 1 1 0.6366197723675814 15.733488156689994 7.820015783582251 0.8340043802314888 0 0 0
468 1 1 0.6366197723675814 18.611576289656764 7.725350599593913 1.1781459354174433 0 0 0
451 1 1 0.6366197723675814 19.6960350875924 8.0693337587898 1.0751849976747878 -1 0 0
472 1 1 0.6366197723675814 2.617705371625798 8.662993329481067 0.7504987208576746 0 0 0
473 1 1 0.6366197723675814 4.06442015797376 8.598584257622345 1.2017977652392706 0 0 0
479 1 1 0.6366197723675814 11.494077987078683 8.387037890932918 0.881875661443306 0 0 0
484 1 1 0.6366197723675814 16.659832717487426 8.644018498311238 0.9931252040103573 0 0 0
469 1 1 0.6366197723675814 0.049540905143698126 9.245559711904203 1.1357357829506958 0 0 0
470 1 1 0.6366197723675814 1.1267409335189074 8.890567424468324 1.115004155123247 0 0 0
475 1 1 0.6366197723675814 6.1053670894794445 8.81240791772806 1.2756500177226895 0 0 0
476 1 1 0.6366197723675814 8.331952188482665 8.904424138997628 1.386404050834378 0 0 0
477 1 1 0.6366197723675814 9.377601502681168 8.781615067672968 0.902728121918037 0 0 0
497 1 1 0.6366197723675814 11.242742490714132 9.325669003092711 1.467840189880279 0 0 0
480 1 1 0.6366197723675814 12.466939441878683 9.085922484334686 1.0540987190469944 0 0 0
481 1 1 0.6366197723675814 13.575826877407769 9.256527164212098 1.0024964185260037 0 0 0
485 1 1 0.6366197723675814 17.684832535549535 9.11061928441906 1.0695564942717568 0 0 0
810 1 1 0.6366197723675814 18.746704021506226 9.063395599388896 1.375529811013428 0 0 0
490 1 1 0.6366197723675814 2.777962221609863 9.789502017202025 0.7681904569134339 0 0 0
491 1 1 0.6366197723675814 4.569945462456613 9.626275743427207 1.3703129295396672 0 0 0
493 1 1 0.6366197723675814 5.776858726631927 10.039991618568257 1.3780264120662291 0 0 0
495 1 1 0.6366197723675814 8.883555715636701 9.93653835971611 1.0476930391271178 0 0 0
498 1 1 0.6366197723675814 12.014281073680575 10.072439158896513 1.1108108605419602 0 0 0
500 1 1 0.6366197723675814 14.105614026013075 10.275373204015324 1.2574631050038676 0 0 0
501 1 1 0.6366197723675814 15.269236682106103 9.957860313244531 0.7876967585798277 0 0 0
503 1 1 0.6366197723675814 17.17399655771588 10.097019417816112 0.802529252298204 0 0 0
487 1 1 0.6366197723675814 19.228880073524426 10.25348082697839 0.8289827463083855 -1 0 0
489 1 1 0.6366197723675814 1.6318959379454383 10.39335487985324 0.7971772579846386 0 0 0
508 1 1 0.6366197723675814 2.6062392114518254 10.95418591892766 0.9353534970899235 0 0 0
509 1 1 0.6366197723675814 3.664856861114749 10.604904807774451 0.9317242748619797 0 0 0