ITEM: TIMESTEP
0
ITEM: NUMBER OF ATOMS
5832
ITEM: BOX BOUNDS pp pp pp
0.0000000000000000e+00 1.9811563493367760e+01
0.0000000000000000e+00 1.9811563493367760e+01
0.0000000000000000e+00 1.9811563493367760e+01
ITEM: ATOMS id type xs ys zs
1 1 0 0 0
2 1 0.0555556 0 0
3 1 0.111111 0 0
4 1 0.166667 0 0
5 1 0.222222 0 0
6 1 0.277778 0 0
7 1 0.333333 0 0
8 1 0.388889 0 0
9 1 0.444444 0 0
10 1 0.5 0 0
11 1 0.555556 0 0
12 1 0.611111 0 0
13 1 0.666667 0 0
14 1 0.722222 0 0
15 1 0.777778 0 0
16 1 0.833333 0 0
17 1 0.888889 0 0
18 1 0.944444 0 0
19 1 0 0.0555556 0
20 1 0.0555556 0.0555556 0
21 1 0.111111 0.0555556 0
22 1 0.166667 0.0555556 0
23 1 0.222222 0.0555556 0
24 1 0.277778 0.0555556 0
25 1 0.333333 0.0555556 0
26 1 0.388889 0.0555556 0
27 1 0.444444 0.0555556 0
28 1 0.5 0.0555556 0
29 1 0.555556 0.0555556 0
30 1 0.611111 0.0555556 0
31 1 0.666667 0.0555556 0
32 1 0.722222 0.0555556 0
33 1 0.777778 0.0555556 0
34 1 0.833333 0.0555556 0
35 1 0.888889 0.0555556 0
36 1 0.944444 0.0555556 0
37 1 0 0.111111 0
38 1 0.0555556 0.111111 0
39 1 0.111111 0.111111 0
40 1 0.166667 0.111111 0
41 1 0.222222 0.111111 0
42 1 0.277778 0.111111 0
43 1 0.333333 0.111111 0
44 1 0.388889 0.111111 0
45 1 0.444444 0.111111 0
46 1 0.5 0.111111 0
47 1 0.555556 0.111111 0
48 1 0.611111 0.111111 0
49 1 0.666667 0.111111 0
50 1 0.722222 0.111111 0
51 1 0.777778 0.111111 0
52 1 0.833333 0.111111 0
53 1 0.888889 0.111111 0
54 1 0.944444 0.111111 0
55 1 0 0.166667 0
56 1 0.0555556 0.166667 0
57 1 0.111111 0.166667 0
58 1 0.166667 0.166667 0
59 1 0.222222 0.166667 0
60 1 0.277778 0.166667 0
61 1 0.333333 0.166667 0
62 1 0.388889 0.166667 0
63 1 0.444444 0.166667 0
64 1 0.5 0.166667 0
65 1 0.555556 0.166667 0
66 1 0.611111 0.166667 0
67 1 0.666667 0.166667 0
68 1 0.722222 0.166667 0
69 1 0.777778 0.166667 0
70 1 0.833333 0.166667 0
71 1 0.888889 0.166667 0
72 1 0.944444 0.166667 0
73 1 0 0.222222 0
74 1 0.0555556 0.222222 0
75 1 0.111111 0.222222 0
76 1 0.166667 0.222222 0
77 1 0.222222 0.222222 0
78 1 0.277778 0.222222 0
79 1 0.333333 0.222222 0
80 1 0.388889 0.222222 0
81 1 0.444444 0.222222 0
82 1 0.5 0.222222 0
83 1 0.555556 0.222222 0
84 1 0.611111 0.222222 0
85 1 0.666667 0.222222 0
86 1 0.722222 0.222222 0
87 1 0.777778 0.222222 0
88 1 0.833333 0.222222 0
89 1 0.888889 0.222222 0
90 1 0.944444 0.222222 0
91 1 0 0.277778 0
92 1 0.0555556 0.277778 0
93 1 0.111111 0.277778 0
94 1 0.166667 0.277778 0
95 1 0.222222 0.277778 0
96 1 0.277778 0.277778 0
97 1 0.333333 0.277778 0
98 1 0.388889 0.277778 0
99 1 0.444444 0.277778 0
100 1 0.5 0.277778 0
101 1 0.555556 0.277778 0
102 1 0.611111 0.277778 0
103 1 0.666667 0.277778 0
104 1 0.722222 0.277778 0
105 1 0.777778 0.277778 0
106 1 0.833333 0.277778 0
107 1 0.888889 0.277778 0
108 1 0.944444 0.277778 0
109 1 0 0.333333 0
110 1 0.0555556 0.333333 0
111 1 0.111111 0.333333 0
112 1 0.166667 0.333333 0
113 1 0.222222 0.333333 0
114 1 0.277778 0.333333 0
115 1 0.333333 0.333333 0
116 1 0.388889 0.333333 0
117 1 0.444444 0.333333 0
118 1 0.5 0.333333 0
119 1 0.555556 0.333333 0
120 1 0.611111 0.333333 0
121 1 0.666667 0.333333 0
122 1 0.722222 0.333333 0
123 1 0.777778 0.333333 0
124 1 0.833333 0.333333 0
125 1 0.888889 0.333333 0
126 1 0.944444 0.333333 0
127 1 0 0.388889 0
128 1 0.0555556 0.388889 0
129 1 0.111111 0.388889 0
130 1 0.166667 0.388889 0
131 1 0.222222 0.388889 0
132 1 0.277778 0.388889 0
133 1 0.333333 0.388889 0
134 1 0.388889 0.388889 0
135 1 0.444444 0.388889 0
136 1 0.5 0.388889 0
137 1 0.555556 0.388889 0
138 1 0.611111 0.388889 0
139 1 0.666667 0.388889 0
140 1 0.722222 0.388889 0
141 1 0.777778 0.388889 0
142 1 0.833333 0.388889 0
143 1 0.888889 0.388889 0
144 1 0.944444 0.388889 0
145 1 0 0.444444 0
146 1 0.0555556 0.444444 0
147 1 0.111111 0.444444 0
148 1 0.166667 0.444444 0
149 1 0.222222 0.444444 0
150 1 0.277778 0.444444 0
151 1 0.333333 0.444444 0
152 1 0.388889 0.444444 0
153 1 0.444444 0.444444 0
154 1 0.5 0.444444 0
155 1 0.555556 0.444444 0
156 1 0.611111 0.444444 0
157 1 0.666667 0.444444 0
158 1 0.722222 0.444444 0
159 1 0.777778 0.444444 0
160 1 0.833333 0.444444 0
161 1 0.888889 0.444444 0
162 1 0.944444 0.444444 0
163 1 0 0.5 0
164 1 0.0555556 0.5 0
165 1 0.111111 0.5 0
166 1 0.166667 0.5 0
167 1 0.222222 0.5 0
168 1 0.277778 0.5 0
169 1 0.333333 0.5 0
170 1 0.388889 0.5 0
171 1 0.444444 0.5 0
172 1 0.5 0.5 0
173 1 0.555556 0.5 0
174 1 0.611111 0.5 0
175 1 0.666667 0.5 0
176 1 0.722222 0.5 0
177 1 0.777778 0.5 0
178 1 0.833333 0.5 0
179 1 0.888889 0.5 0
180 1 0.944444 0.5 0
181 1 0 0.555556 0
182 1 0.0555556 0.555556 0
183 1 0.111111 0.555556 0
184 1 0.166667 0.555556 0
185 1 0.222222 0.555556 0
186 1 0.277778 0.555556 0
187 1 0.333333 0.555556 0
188 1 0.388889 0.555556 0
189 1 0.444444 0.555556 0
190 1 0.5 0.555556 0
191 1 0.555556 0.555556 0
192 1 0.611111 0.555556 0
193 1 0.666667 0.555556 0
194 1 0.722222 0.555556 0
195 1 0.777778 0.555556 0
196 1 0.833333 0.555556 0
197 1 0.888889 0.555556 0
198 1 0.944444 0.555556 0
199 1 0 0.611111 0
200 1 0.0555556 0.611111 0
201 1 0.111111 0.611111 0
202 1 0.166667 0.611111 0
203 1 0.222222 0.611111 0
204 1 0.277778 0.611111 0
205 1 0.333333 0.611111 0
206 1 0.388889 0.611111 0
207 1 0.444444 0.611111 0
208 1 0.5 0.611111 0
209 1 0.555556 0.611111 0
210 1 0.611111 0.611111 0
211 1 0.666667 0.611111 0
212 1 0.722222 0.611111 0
213 1 0.777778 0.611111 0
214 1 0.833333 0.611111 0
215 1 0.888889 0.611111 0
216 1 0.944444 0.611111 0
217 1 0 0.666667 0
218 1 0.0555556 0.666667 0
219 1 0.111111 0.666667 0
220 1 0.166667 0.666667 0
221 1 0.222222 0.666667 0
222 1 0.277778 0.666667 0
223 1 0.333333 0.666667 0
224 1 0.388889 0.666667 0
225 1 0.444444 0.666667 0
226 1 0.5 0.666667 0
227 1 0.555556 0.666667 0
228 1 0.611111 0.666667 0
229 1 0.666667 0.666667 0
230 1 0.722222 0.666667 0
231 1 0.777778 0.666667 0
232 1 0.833333 0.666667 0
233 1 0.888889 0.666667 0
234 1 0.944444 0.666667 0
235 1 0 0.722222 0
236 1 0.0555556 0.722222 0
237 1 0.111111 0.722222 0
238 1 0.166667 0.722222 0
239 1 0.222222 0.722222 0
240 1 0.277778 0.722222 0
241 1 0.333333 0.722222 0
242 1 0.388889 0.722222 0
243 1 0.444444 0.722222 0
244 1 0.5 0.722222 0
245 1 0.555556 0.722222 0
246 1 0.611111 0.722222 0
247 1 0.666667 0.722222 0
248 1 0.722222 0.722222 0
249 1 0.777778 0.722222 0
250 1 0.833333 0.722222 0
251 1 0.888889 0.722222 0
252 1 0.944444 0.722222 0
253 1 0 0.777778 0
254 1 0.0555556 0.777778 0
255 1 0.111111 0.777778 0
256 1 0.166667 0.777778 0
257 1 0.222222 0.777778 0
258 1 0.277778 0.777778 0
259 1 0.333333 0.777778 0
260 1 0.388889 0.777778 0
261 1 0.444444 0.777778 0
262 1 0.5 0.777778 0
263 1 0.555556 0.777778 0
264 1 0.611111 0.777778 0
265 1 0.666667 0.777778 0
266 1 0.722222 0.777778 0
267 1 0.777778 0.777778 0
268 1 0.833333 0.777778 0
269 1 0.888889 0.777778 0
270 1 0.944444 0.777778 0
271 1 0 0.833333 0
272 1 0.0555556 0.833333 0
273 1 0.111111 0.833333 0
274 1 0.166667 0.833333 0
275 1 0.222222 0.833333 0
276 1 0.277778 0.833333 0
277 1 0.333333 0.833333 0
278 1 0.388889 0.833333 0
279 1 0.444444 0.833333 0
280 1 0.5 0.833333 0
281 1 0.555556 0.833333 0
282 1 0.611111 0.833333 0
283 1 0.666667 0.833333 0
284 1 0.722222 0.833333 0
285 1 0.777778 0.833333 0
286 1 0.833333 0.833333 0
287 1 0.888889 0.833333 0
288 1 0.944444 0.833333 0
289 1 0 0.888889 0
290 1 0.0555556 0.888889 0
291 1 0.111111 0.888889 0
292 1 0.166667 0.888889 0
293 1 0.222222 0.888889 0
294 1 0.277778 0.888889 0
295 1 0.333333 0.888889 0
296 1 0.388889 0.888889 0
297 1 0.444444 0.888889 0
298 1 0.5 0.888889 0
299 1 0.555556 0.888889 0
300 1 0.611111 0.888889 0
301 1 0.666667 0.888889 0
302 1 0.722222 0.888889 0
303 1 0.777778 0.888889 0
304 1 0.833333 0.888889 0
305 1 0.888889 0.888889 0
306 1 0.944444 0.888889 0
307 1 0 0.944444 0
308 1 0.0555556 0.944444 0
309 1 0.111111 0.944444 0
310 1 0.166667 0.944444 0
311 1 0.222222 0.944444 0
312 1 0.277778 0.944444 0
313 1 0.333333 0.944444 0
314 1 0.388889 0.944444 0
315 1 0.444444 0.944444 0
316 1 0.5 0.944444 0
317 1 0.555556 0.944444 0
318 1 0.611111 0.944444 0
319 1 0.666667 0.944444 0
320 1 0.722222 0.944444 0
321 1 0.777778 0.944444 0
322 1 0.833333 0.944444 0
323 1 0.888889 0.944444 0
324 1 0.944444 0.944444 0
325 1 0 0 0.0555556
326 1 0.0555556 0 0.0555556
327 1 0.111111 0 0.0555556
328 1 0.166667 0 0.0555556
329 1 0.222222 0 0.0555556
330 1 0.277778 0 0.0555556
331 1 0.333333 0 0.0555556
332 1 0.388889 0 0.0555556
333 1 0.444444 0 0.0555556
334 1 0.5 0 0.0555556
335 1 0.555556 0 0.0555556
336 1 0.611111 0 0.0555556
337 1 0.666667 0 0.0555556
338 1 0.722222 0 0.0555556
339 1 0.777778 0 0.0555556
340 1 0.833333 0 0.0555556
341 1 0.888889 0 0.0555556
342 1 0.944444 0 0.0555556
343 1 0 0.0555556 0.0555556
344 1 0.0555556 0.0555556 0.0555556
345 1 0.111111 0.0555556 0.0555556
346 1 0.166667 0.0555556 0.0555556
347 1 0.222222 0.0555556 0.0555556
348 1 0.277778 0.0555556 0.0555556
349 1 0.333333 0.0555556 0.0555556
350 1 0.388889 0.0555556 0.0555556
351 1 0.444444 0.0555556 0.0555556
352 1 0.5 0.0555556 0.0555556
353 1 0.555556 0.0555556 0.0555556
354 1 0.611111 0.0555556 0.0555556
355 1 0.666667 0.0555556 0.0555556
356 1 0.722222 0.0555556 0.0555556
357 1 0.777778 0.0555556 0.0555556
358 1 0.833333 0.0555556 0.0555556
359 1 0.888889 0.0555556 0.0555556
360 1 0.944444 0.0555556 0.0555556
361 1 0 0.111111 0.0555556
362 1 0.0555556 0.111111 0.0555556
363 1 0.111111 0.111111 0.0555556
364 1 0.166667 0.111111 0.0555556
365 1 0.222222 0.111111 0.0555556
366 1 0.277778 0.111111 0.0555556
367 1 0.333333 0.111111 0.0555556
368 1 0.388889 0.111111 0.0555556
369 1 0.444444 0.111111 0.0555556
370 1 0.5 0.111111 0.0555556
371 1 0.555556 0.111111 0.0555556
372 1 0.611111 0.111111 0.0555556
373 1 0.666667 0.111111 0.0555556
374 1 0.722222 0.111111 0.0555556
375 1 0.777778 0.111111 0.0555556
376 1 0.833333 0.111111 0.0555556
377 1 0.888889 0.111111 0.0555556
378 1 0.944444 0.111111 0.0555556
379 1 0 0.166667 0.0555556
380 1 0.0555556 0.166667 0.0555556
381 1 0.111111 0.166667 0.0555556
382 1 0.166667 0.166667 0.0555556
383 1 0.222222 0.166667 0.0555556
384 1 0.277778 0.166667 0.0555556
385 1 0.333333 0.166667 0.0555556
386 1 0.388889 0.166667 0.0555556
387 1 0.444444 0.166667 0.0555556
388 1 0.5 0.166667 0.0555556
389 1 0.555556 0.166667 0.0555556
390 1 0.611111 0.166667 0.0555556
391 1 0.666667 0.166667 0.0555556
392 1 0.722222 0.166667 0.0555556
393 1 0.777778 0.166667 0.0555556
394 1 0.833333 0.166667 0.0555556
395 1 0.888889 0.166667 0.0555556
396 1 0.944444 0.166667 0.0555556
397 1 0 0.222222 0.0555556
398 1 0.0555556 0.222222 0.0555556
399 1 0.111111 0.222222 0.0555556
400 1 0.166667 0.222222 0.0555556
401 1 0.222222 0.222222 0.0555556
402 1 0.277778 0.222222 0.0555556
403 1 0.333333 0.222222 0.0555556
404 1 0.388889 0.222222 0.0555556
405 1 0.444444 0.222222 0.0555556
406 1 0.5 0.222222 0.0555556
407 1 0.555556 0.222222 0.0555556
408 1 0.611111 0.222222 0.0555556
409 1 0.666667 0.222222 0.0555556
410 1 0.722222 0.222222 0.0555556
411 1 0.777778 0.222222 0.0555556
412 1 0.833333 0.222222 0.0555556
413 1 0.888889 0.222222 0.0555556
414 1 0.944444 0.222222 0.0555556
415 1 0 0.277778 0.0555556
416 1 0.0555556 0.277778 0.0555556
417 1 0.111111 0.277778 0.0555556
418 1 0.166667 0.277778 0.0555556
419 1 0.222222 0.277778 0.0555556
420 1 0.277778 0.277778 0.0555556
421 1 0.333333 0.277778 0.0555556
422 1 0.388889 0.277778 0.0555556
423 1 0.444444 0.277778 0.0555556
424 1 0.5 0.277778 0.0555556
425 1 0.555556 0.277778 0.0555556
426 1 0.611111 0.277778 0.0555556
427 1 0.666667 0.277778 0.0555556
428 1 0.722222 0.277778 0.0555556
429 1 0.777778 0.277778 0.0555556
430 1 0.833333 0.277778 0.0555556
431 1 0.888889 0.277778 0.0555556
432 1 0.944444 0.277778 0.0555556
433 1 0 0.333333 0.0555556
434 1 0.0555556 0.333333 0.0555556
435 1 0.111111 0.333333 0.0555556
436 1 0.166667 0.333333 0.0555556
437 1 0.222222 0.333333 0.0555556
438 1 0.277778 0.333333 0.0555556
439 1 0.333333 0.333333 0.0555556
440 1 0.388889 0.333333 0.0555556
441 1 0.444444 0.333333 0.0555556
442 1 0.5 0.333333 0.0555556
443 1 0.555556 0.333333 0.0555556
444 1 0.611111 0.333333 0.0555556
445 1 0.666667 0.333333 0.0555556
446 1 0.722222 0.333333 0.0555556
447 1 0.777778 0.333333 0.0555556
448 1 0.833333 0.333333 0.0555556
449 1 0.888889 0.333333 0.0555556
450 1 0.944444 0.333333 0.0555556
451 1 0 0.388889 0.0555556
452 1 0.0555556 0.388889 0.0555556
453 1 0.111111 0.388889 0.0555556
454 1 0.166667 0.388889 0.0555556
455 1 0.222222 0.388889 0.0555556
456 1 0.277778 0.388889 0.0555556
457 1 0.333333 0.388889 0.0555556
458 1 0.388889 0.388889 0.0555556
459 1 0.444444 0.388889 0.0555556
460 1 0.5 0.388889 0.0555556
461 1 0.555556 0.388889 0.0555556
462 1 0.611111 0.388889 0.0555556
463 1 0.666667 0.388889 0.0555556
464 1 0.722222 0.388889 0.0555556
465 1 0.777778 0.388889 0.0555556
466 1 0.833333 0.388889 0.0555556
467 1 0.888889 0.388889 0.0555556
468 1 0.944444 0.388889 0.0555556
469 1 0 0.444444 0.0555556
470 1 0.0555556 0.444444 0.0555556
471 1 0.111111 0.444444 0.0555556
472 1 0.166667 0.444444 0.0555556
473 1 0.222222 0.444444 0.0555556
474 1 0.277778 0.444444 0.0555556
475 1 0.333333 0.444444 0.0555556
476 1 0.388889 0.444444 0.0555556
477 1 0.444444 0.444444 0.0555556
478 1 0.5 0.444444 0.0555556
479 1 0.555556 0.444444 0.0555556
480 1 0.611111 0.444444 0.0555556
481 1 0.666667 0.444444 0.0555556
482 1 0.722222 0.444444 0.0555556
483 1 0.777778 0.444444 0.0555556
484 1 0.833333 0.444444 0.0555556
485 1 0.888889 0.444444 0.0555556
486 1 0.944444 0.444444 0.0555556
487 1 0 0.5 0.0555556
488 1 0.0555556 0.5 0.0555556
489 1 0.111111 0.5 0.0555556
490 1 0.166667 0.5 0.0555556
491 1 0.222222 0.5 0.0555556
492 1 0.277778 0.5 0.0555556
493 1 0.333333 0.5 0.0555556
494 1 0.388889 0.5 0.0555556
495 1 0.444444 0.5 0.0555556
496 1 0.5 0.5 0.0555556
497 1 0.555556 0.5 0.0555556
498 1 0.611111 0.5 0.0555556
499 1 0.666667 0.5 0.0555556
500 1 0.722222 0.5 0.0555556
501 1 0.777778 0.5 0.0555556
502 1 0.833333 0.5 0.0555556
503 1 0.888889 0.5 0.0555556
504 1 0.944444 0.5 0.0555556
505 1 0 0.555556 0.0555556
506 1 0.0555556 0.555556 0.0555556
507 1 0.111111 0.555556 0.0555556
508 1 0.166667 0.555556 0.0555556
509 1 0.222222 0.555556 0.0555556
510 1 0.277778 0.555556 0.0555556
511 1 0.333333 0.555556 0.0555556
512 1 0.388889 0.555556 0.0555556
513 1 0.444444 0.555556 0.0555556
514 1 0.5 0.555556 0.0555556
515 1 0.555556 0.555556 0.0555556
516 1 0.611111 0.555556 0.0555556
517 1 0.666667 0.555556 0.0555556
518 1 0.722222 0.555556 0.0555556
519 1 0.777778 0.555556 0.0555556
520 1 0.833333 0.555556 0.0555556
521 1 0.888889 0.555556 0.0555556
522 1 0.944444 0.555556 0.0555556
523 1 0 0.611111 0.0555556
524 1 0.0555556 0.611111 0.0555556
525 1 0.111111 0.611111 0.0555556
526 1 0.166667 0.611111 0.0555556
527 1 0.222222 0.611111 0.0555556
528 1 0.277778 0.611111 0.0555556
529 1 0.333333 0.611111 0.0555556
530 1 0.388889 0.611111 0.0555556
531 1 0.444444 0.611111 0.0555556
532 1 0.5 0.611111 0.0555556
533 1 0.555556 0.611111 0.0555556
534 1 0.611111 0.611111 0.0555556
535 1 0.666667 0.611111 0.0555556
536 1 0.722222 0.611111 0.0555556
537 1 0.777778 0.611111 0.0555556
538 1 0.833333 0.611111 0.0555556
539 1 0.888889 0.611111 0.0555556
540 1 0.944444 0.611111 0.0555556
541 1 0 0.666667 0.0555556
542 1 0.0555556 0.666667 0.0555556
543 1 0.111111 0.666667 0.0555556
544 1 0.166667 0.666667 0.0555556
545 1 0.222222 0.666667 0.0555556
546 1 0.277778 0.666667 0.0555556
547 1 0.333333 0.666667 0.0555556
548 1 0.388889 0.666667 0.0555556
549 1 0.444444 0.666667 0.0555556
550 1 0.5 0.666667 0.0555556
551 1 0.555556 0.666667 0.0555556
552 1 0.611111 0.666667 0.0555556
553 1 0.666667 0.666667 0.0555556
554 1 0.722222 0.666667 0.0555556
555 1 0.777778 0.666667 0.0555556
556 1 0.833333 0.666667 0.0555556
557 1 0.888889 0.666667 0.0555556
558 1 0.944444 0.666667 0.0555556
559 1 0 0.722222 0.0555556
560 1 0.0555556 0.722222 0.0555556
561 1 0.111111 0.722222 0.0555556
562 1 0.166667 0.722222 0.0555556
563 1 0.222222 0.722222 0.0555556
564 1 0.277778 0.722222 0.0555556
565 1 0.333333 0.722222 0.0555556
566 1 0.388889 0.722222 0.0555556
567 1 0.444444 0.722222 0.0555556
568 1 0.5 0.722222 0.0555556
569 1 0.555556 0.722222 0.0555556
570 1 0.611111 0.722222 0.0555556
571 1 0.666667 0.722222 0.0555556
572 1 0.722222 0.722222 0.0555556
573 1 0.777778 0.722222 0.0555556
574 1 0.833333 0.722222 0.0555556
575 1 0.888889 0.722222 0.0555556
576 1 0.944444 0.722222 0.0555556
577 1 0 0.777778 0.0555556
578 1 0.0555556 0.777778 0.0555556
579 1 0.111111 0.777778 0.0555556
580 1 0.166667 0.777778 0.0555556
581 1 0.222222 0.777778 0.0555556
582 1 0.277778 0.777778 0.0555556
583 1 0.333333 0.777778 0.0555556
584 1 0.388889 0.777778 0.0555556
585 1 0.444444 0.777778 0.0555556
586 1 0.5 0.777778 0.0555556
587 1 0.555556 0.777778 0.0555556
588 1 0.611111 0.777778 0.0555556
589 1 0.666667 0.777778 0.0555556
590 1 0.722222 0.777778 0.0555556
591 1 0.777778 0.777778 0.0555556
592 1 0.833333 0.777778 0.0555556
593 1 0.888889 0.777778 0.0555556
594 1 0.944444 0.777778 0.0555556
595 1 0 0.833333 0.0555556
596 1 0.0555556 0.833333 0.0555556
597 1 0.111111 0.833333 0.0555556
598 1 0.166667 0.833333 0.0555556
599 1 0.222222 0.833333 0.0555556
600 1 0.277778 0.833333 0.0555556
601 1 0.333333 0.833333 0.0555556
602 1 0.388889 0.833333 0.0555556
603 1 0.444444 0.833333 0.0555556
604 1 0.5 0.833333 0.0555556
605 1 0.555556 0.833333 0.0555556
606 1 0.611111 0.833333 0.0555556
607 1 0.666667 0.833333 0.0555556
608 1 0.722222 0.833333 0.0555556
609 1 0.777778 0.833333 0.0555556
610 1 0.833333 0.833333 0.0555556
611 1 0.888889 0.833333 0.0555556
612 1 0.944444 0.833333 0.0555556
613 1 0 0.888889 0.0555556
614 1 0.0555556 0.888889 0.0555556
615 1 0.111111 0.888889 0.0555556
616 1 0.166667 0.888889 0.0555556
617 1 0.222222 0.888889 0.0555556
618 1 0.277778 0.888889 0.0555556
619 1 0.333333 0.888889 0.0555556
620 1 0.388889 0.888889 0.0555556
621 1 0.444444 0.888889 0.0555556
622 1 0.5 0.888889 0.0555556
623 1 0.555556 0.888889 0.0555556
624 1 0.611111 0.888889 0.0555556
625 1 0.666667 0.888889 0.0555556
626 1 0.722222 0.888889 0.0555556
627 1 0.777778 0.888889 0.0555556
628 1 0.833333 0.888889 0.0555556
629 1 0.888889 0.888889 0.0555556
630 1 0.944444 0.888889 0.0555556
631 1 0 0.944444 0.0555556
632 1 0.0555556 0.944444 0.0555556
633 1 0.111111 0.944444 0.0555556
634 1 0.166667 0.944444 0.0555556
635 1 0.222222 0.944444 0.0555556
636 1 0.277778 0.944444 0.0555556
637 1 0.333333 0.944444 0.0555556
638 1 0.388889 0.944444 0.0555556
639 1 0.444444 0.944444 0.0555556
640 1 0.5 0.944444 0.0555556
641 1 0.555556 0.944444 0.0555556
642 1 0.611111 0.944444 0.0555556
643 1 0.666667 0.944444 0.0555556
644 1 0.722222 0.944444 0.0555556
645 1 0.777778 0.944444 0.0555556
646 1 0.833333 0.944444 0.0555556
647 1 0.888889 0.944444 0.0555556
648 1 0.944444 0.944444 0.0555556
649 1 0 0 0.111111
650 1 0.0555556 0 0.111111
651 1 0.111111 0 0.111111
652 1 0.166667 0 0.111111
653 1 0.222222 0 0.111111
654 1 0.277778 0 0.111111
655 1 0.333333 0 0.111111
656 1 0.388889 0 0.111111
657 1 0.444444 0 0.111111
658 1 0.5 0 0.111111
659 1 0.555556 0 0.111111
660 1 0.611111 0 0.111111
661 1 0.666667 0 0.111111
662 1 0.722222 0 0.111111
663 1 0.777778 0 0.111111
664 1 0.833333 0 0.111111
665 1 0.888889 0 0.111111
666 1 0.944444 0 0.111111
667 1 0 0.0555556 0.111111
668 1 0.0555556 0.0555556 0.111111
669 1 0.111111 0.0555556 0.111111
670 1 0.166667 0.0555556 0.111111
671 1 0.222222 0.0555556 0.111111
672 1 0.277778 0.0555556 0.111111
673 1 0.333333 0.0555556 0.111111
674 1 0.388889 0.0555556 0.111111
675 1 0.444444 0.0555556 0.111111
676 1 0.5 0.0555556 0.111111
677 1 0.555556 0.0555556 0.111111
678 1 0.611111 0.0555556 0.111111
679 1 0.666667 0.0555556 0.111111
680 1 0.722222 0.0555556 0.111111
681 1 0.777778 0.0555556 0.111111
682 1 0.833333 0.0555556 0.111111
683 1 0.888889 0.0555556 0.111111
684 1 0.944444 0.0555556 0.111111
685 1 0 0.111111 0.111111
686 1 0.0555556 0.111111 0.111111
687 1 0.111111 0.111111 0.111111
688 1 0.166667 0.111111 0.111111
689 1 0.222222 0.111111 0.111111
690 1 0.277778 0.111111 0.111111
691 1 0.333333 0.111111 0.111111
692 1 0.388889 0.111111 0.111111
693 1 0.444444 0.111111 0.111111
694 1 0.5 0.111111 0.111111
695 1 0.555556 0.111111 0.111111
696 1 0.611111 0.111111 0.111111
697 1 0.666667 0.111111 0.111111
698 1 0.722222 0.111111 0.111111
699 1 0.777778 0.111111 0.111111
700 1 0.833333 0.111111 0.111111
701 1 0.888889 0.111111 0.111111
702 1 0.944444 0.111111 0.111111
703 1 0 0.166667 0.111111
704 1 0.0555556 0.166667 0.111111
705 1 0.111111 0.166667 0.111111
706 1 0.166667 0.166667 0.111111
707 1 0.222222 0.166667 0.111111
708 1 0.277778 0.166667 0.111111
709 1 0.333333 0.166667 0.111111
710 1 0.388889 0.166667 0.111111
711 1 0.444444 0.166667 0.111111
712 1 0.5 0.166667 0.111111
713 1 0.555556 0.166667 0.111111
714 1 0.611111 0.166667 0.111111
715 1 0.666667 0.166667 0.111111
716 1 0.722222 0.166667 0.111111
717 1 0.777778 0.166667 0.111111
718 1 0.833333 0.166667 0.111111
719 1 0.888889 0.166667 0.111111
720 1 0.944444 0.166667 0.111111
721 1 0 0.222222 0.111111
722 1 0.0555556 0.222222 0.111111
723 1 0.111111 0.222222 0.111111
724 1 0.166667 0.222222 0.111111
725 1 0.222222 0.222222 0.111111
726 1 0.277778 0.222222 0.111111
727 1 0.333333 0.222222 0.111111
728 1 0.388889 0.222222 0.111111
729 1 0.444444 0.222222 0.111111
730 1 0.5 0.222222 0.111111
731 1 0.555556 0.222222 0.111111
732 1 0.611111 0.222222 0.111111
733 1 0.666667 0.222222 0.111111
734 1 0.722222 0.222222 0.111111
735 1 0.777778 0.222222 0.111111
736 1 0.833333 0.222222 0.111111
737 1 0.888889 0.222222 0.111111
738 1 0.944444 0.222222 0.111111
739 1 0 0.277778 0.111111
740 1 0.0555556 0.277778 0.111111
741 1 0.111111 0.277778 0.111111
742 1 0.166667 0.277778 0.111111
743 1 0.222222 0.277778 0.111111
744 1 0.277778 0.277778 0.111111
745 1 0.333333 0.277778 0.111111
746 1 0.388889 0.277778 0.111111
747 1 0.444444 0.277778 0.111111
748 1 0.5 0.277778 0.111111
749 1 0.555556 0.277778 0.111111
750 1 0.611111 0.277778 0.111111
751 1 0.666667 0.277778 0.111111
752 1 0.722222 0.277778 0.111111
753 1 0.777778 0.277778 0.111111
754 1 0.833333 0.277778 0.111111
755 1 0.888889 0.277778 0.111111
756 1 0.944444 0.277778 0.111111
757 1 0 0.333333 0.111111
758 1 0.0555556 0.333333 0.111111
759 1 0.111111 0.333333 0.111111
760 1 0.166667 0.333333 0.111111
761 1 0.222222 0.333333 0.111111
762 1 0.277778 0.333333 0.111111
763 1 0.333333 0.333333 0.111111
764 1 0.388889 0.333333 0.111111
765 1 0.444444 0.333333 0.111111
766 1 0.5 0.333333 0.111111
767 1 0.555556 0.333333 0.111111
768 1 0.611111 0.333333 0.111111
769 1 0.666667 0.333333 0.111111
770 1 0.722222 0.333333 0.111111
771 1 0.777778 0.333333 0.111111
772 1 0.833333 0.333333 0.111111
773 1 0.888889 0.333333 0.111111
774 1 0.944444 0.333333 0.111111
775 1 0 0.388889 0.111111
776 1 0.0555556 0.388889 0.111111
777 1 0.111111 0.388889 0.111111
778 1 0.166667 0.388889 0.111111
779 1 0.222222 0.388889 0.111111
780 1 0.277778 0.388889 0.111111
781 1 0.333333 0.388889 0.111111
782 1 0.388889 0.388889 0.111111
783 1 0.444444 0.388889 0.111111
784 1 0.5 0.388889 0.111111
785 1 0.555556 0.388889 0.111111
786 1 0.611111 0.388889 0.111111
787 1 0.666667 0.388889 0.111111
788 1 0.722222 0.388889 0.111111
789 1 0.777778 0.388889 0.111111
790 1 0.833333 0.388889 0.111111
791 1 0.888889 0.388889 0.111111
792 1 0.944444 0.388889 0.111111
793 1 0 0.444444 0.111111
794 1 0.0555556 0.444444 0.111111
795 1 0.111111 0.444444 0.111111
796 1 0.166667 0.444444 0.111111
797 1 0.222222 0.444444 0.111111
798 1 0.277778 0.444444 0.111111
799 1 0.333333 0.444444 0.111111
800 1 0.388889 0.444444 0.111111
801 1 0.444444 0.444444 0.111111
802 1 0.5 0.444444 0.111111
803 1 0.555556 0.444444 0.111111
804 1 0.611111 0.444444 0.111111
805 1 0.666667 0.444444 0.111111
806 1 0.722222 0.444444 0.111111
807 1 0.777778 0.444444 0.111111
808 1 0.833333 0.444444 0.111111
809 1 0.888889 0.444444 0.111111
810 1 0.944444 0.444444 0.111111
811 1 0 0.5 0.111111
812 1 0.0555556 0.5 0.111111
813 1 0.111111 0.5 0.111111
814 1 0.166667 0.5 0.111111
815 1 0.222222 0.5 0.111111
816 1 0.277778 0.5 0.111111
817 1 0.333333 0.5 0.111111
818 1 0.388889 0.5 0.111111
819 1 0.444444 0.5 0.111111
820 1 0.5 0.5 0.111111
821 1 0.555556 0.5 0.111111
822 1 0.611111 0.5 0.111111
823 1 0.666667 0.5 0.111111
824 1 0.722222 0.5 0.111111
825 1 0.777778 0.5 0.111111
826 1 0.833333 0.5 0.111111
827 1 0.888889 0.5 0.111111
828 1 0.944444 0.5 0.111111
829 1 0 0.555556 0.111111
830 1 0.0555556 0.555556 0.111111
831 1 0.111111 0.555556 0.111111
832 1 0.166667 0.555556 0.111111
833 1 0.222222 0.555556 0.111111
834 1 0.277778 0.555556 0.111111
835 1 0.333333 0.555556 0.111111
836 1 0.388889 0.555556 0.111111
837 1 0.444444 0.555556 0.111111
838 1 0.5 0.555556 0.111111
839 1 0.555556 0.555556 0.111111
840 1 0.611111 0.555556 0.111111
841 1 0.666667 0.555556 0.111111
842 1 0.722222 0.555556 0.111111
843 1 0.777778 0.555556 0.111111
844 1 0.833333 0.555556 0.111111
845 1 0.888889 0.555556 0.111111
846 1 0.944444 0.555556 0.111111
847 1 0 0.611111 0.111111
848 1 0.0555556 0.611111 0.111111
849 1 0.111111 0.611111 0.111111
850 1 0.166667 0.611111 0.111111
851 1 0.222222 0.611111 0.111111
852 1 0.277778 0.611111 0.111111
853 1 0.333333 0.611111 0.111111
854 1 0.388889 0.611111 0.111111
855 1 0.444444 0.611111 0.111111
856 1 0.5 0.611111 0.111111
857 1 0.555556 0.611111 0.111111
858 1 0.611111 0.611111 0.111111
859 1 0.666667 0.611111 0.111111
860 1 0.722222 0.611111 0.111111
861 1 0.777778 0.611111 0.111111
862 1 0.833333 0.611111 0.111111
863 1 0.888889 0.611111 0.111111
864 1 0.944444 0.611111 0.111111
865 1 0 0.666667 0.111111
866 1 0.0555556 0.666667 0.111111
867 1 0.111111 0.666667 0.111111
868 1 0.166667 0.666667 0.111111
869 1 0.222222 0.666667 0.111111
870 1 0.277778 0.666667 0.111111
871 1 0.333333 0.666667 0.111111
872 1 0.388889 0.666667 0.111111
873 1 0.444444 0.666667 0.111111
874 1 0.5 0.666667 0.111111
875 1 0.555556 0.666667 0.111111
876 1 0.611111 0.666667 0.111111
877 1 0.666667 0.666667 0.111111
878 1 0.722222 0.666667 0.111111
879 1 0.777778 0.666667 0.111111
880 1 0.833333 0.666667 0.111111
881 1 0.888889 0.666667 0.111111
882 1 0.944444 0.666667 0.111111
883 1 0 0.722222 0.111111
884 1 0.0555556 0.722222 0.111111
885 1 0.111111 0.722222 0.111111
886 1 0.166667 0.722222 0.111111
887 1 0.222222 0.722222 0.111111
888 1 0.277778 0.722222 0.111111
889 1 0.333333 0.722222 0.111111
890 1 0.388889 0.722222 0.111111
891 1 0.444444 0.722222 0.111111
892 1 0.5 0.722222 0.111111
893 1 0.555556 0.722222 0.111111
894 1 0.611111 0.722222 0.111111
895 1 0.666667 0.722222 0.111111
896 1 0.722222 0.722222 0.111111
897 1 0.777778 0.722222 0.111111
898 1 0.833333 0.722222 0.111111
899 1 0.888889 0.722222 0.111111
900 1 0.944444 0.722222 0.111111
901 1 0 0.777778 0.111111
902 1 0.0555556 0.777778 0.111111
903 1 0.111111 0.777778 0.111111
904 1 0.166667 0.777778 0.111111
905 1 0.222222 0.777778 0.111111
906 1 0.277778 0.777778 0.111111
907 1 0.333333 0.777778 0.111111
908 1 0.388889 0.777778 0.111111
909 1 0.444444 0.777778 0.111111
910 1 0.5 0.777778 0.111111
911 1 0.555556 0.777778 0.111111
912 1 0.611111 0.777778 0.111111
913 1 0.666667 0.777778 0.111111
914 1 0.722222 0.777778 0.111111
915 1 0.777778 0.777778 0.111111
916 1 0.833333 0.777778 0.111111
917 1 0.888889 0.777778 0.111111
918 1 0.944444 0.777778 0.111111
919 1 0 0.833333 0.111111
920 1 0.0555556 0.833333 0.111111
921 1 0.111111 0.833333 0.111111
922 1 0.166667 0.833333 0.111111
923 1 0.222222 0.833333 0.111111
924 1 0.277778 0.833333 0.111111
925 1 0.333333 0.833333 0.111111
926 1 0.388889 0.833333 0.111111
927 1 0.444444 0.833333 0.111111
928 1 0.5 0.833333 0.111111
929 1 0.555556 0.833333 0.111111
930 1 0.611111 0.833333 0.111111
931 1 0.666667 0.833333 0.111111
932 1 0.722222 0.833333 0.111111
933 1 0.777778 0.833333 0.111111
934 1 0.833333 0.833333 0.111111
935 1 0.888889 0.833333 0.111111
936 1 0.944444 0.833333 0.111111
937 1 0 0.888889 0.111111
938 1 0.0555556 0.888889 0.111111
939 1 0.111111 0.888889 0.111111
940 1 0.166667 0.888889 0.111111
941 1 0.222222 0.888889 0.111111
942 1 0.277778 0.888889 0.111111
943 1 0.333333 0.888889 0.111111
944 1 0.388889 0.888889 0.111111
945 1 0.444444 0.888889 0.111111
946 1 0.5 0.888889 0.111111
947 1 0.555556 0.888889 0.111111
948 1 0.611111 0.888889 0.111111
949 1 0.666667 0.888889 0.111111
950 1 0.722222 0.888889 0.111111
951 1 0.777778 0.888889 0.111111
952 1 0.833333 0.888889 0.111111
953 1 0.888889 0.888889 0.111111
954 1 0.944444 0.888889 0.111111
955 1 0 0.944444 0.111111
956 1 0.0555556 0.944444 0.111111
957 1 0.111111 0.944444 0.111111
958 1 0.166667 0.944444 0.111111
959 1 0.222222 0.944444 0.111111
960 1 0.277778 0.944444 0.111111
961 1 0.333333 0.944444 0.111111
962 1 0.388889 0.944444 0.111111
963 1 0.444444 0.944444 0.111111
964 1 0.5 0.944444 0.111111
965 1 0.555556 0.944444 0.111111
966 1 0.611111 0.944444 0.111111
967 1 0.666667 0.944444 0.111111
968 1 0.722222 0.944444 0.111111
969 1 0.777778 0.944444 0.111111
970 1 0.833333 0.944444 0.111111
971 1 0.888889 0.944444 0.111111
972 1 0.944444 0.944444 0.111111
973 1 0 0 0.166667
974 1 0.0555556 0 0.166667
975 1 0.111111 0 0.166667
976 1 0.166667 0 0.166667
977 1 0.222222 0 0.166667
978 1 0.277778 0 0.166667
979 1 0.333333 0 0.166667
980 1 0.388889 0 0.166667
981 1 0.444444 0 0.166667
982 1 0.5 0 0.166667
983 1 0.555556 0 0.166667
984 1 0.611111 0 0.166667
985 1 0.666667 0 0.166667
986 1 0.722222 0 0.166667
987 1 0.777778 0 0.166667
988 1 0.833333 0 0.166667
989 1 0.888889 0 0.166667
990 1 0.944444 0 0.166667
991 1 0 0.0555556 0.166667
992 1 0.0555556 0.0555556 0.166667
993 1 0.111111 0.0555556 0.166667
994 1 0.166667 0.0555556 0.166667
995 1 0.222222 0.0555556 0.166667
996 1 0.277778 0.0555556 0.166667
997 1 0.333333 0.0555556 0.166667
998 1 0.388889 0.0555556 0.166667
999 1 0.444444 0.0555556 0.166667
1000 1 0.5 0.0555556 0.166667
1001 1 0.555556 0.0555556 0.166667
1002 1 0.611111 0.0555556 0.166667
1003 1 0.666667 0.0555556 0.166667
1004 1 0.722222 0.0555556 0.166667