LAMMPS (27 Jun 2024)
###
# Box and units  (use LJ units and periodic boundaries)
###

units lj

atom_style ellipsoid

boundary        p p p

neighbor 1.5 bin
neigh_modify every 1 delay 0 check yes

read_data lmp_data
Reading data file ...
  orthogonal box = (-2 -2 -4) to (2 2 4)
  1 by 1 by 2 MPI processor grid
  reading atoms ...
  2 atoms
  reading velocities ...
  2 velocities
  2 ellipsoids
  read_data CPU = 0.002 seconds

reset_timestep 0

######################

group all type 1
2 atoms in group all
group polymer type 1
2 atoms in group polymer

###
# Dump configs + box coords
###
compute q all property/atom quatw quati quatj quatk
compute diameter all property/atom shapex shapey shapez
dump 1 all custom 1 dump.polymer id type x y z c_q[1] c_q[2] c_q[3] c_q[4] c_diameter[1] c_diameter[2] c_diameter[3]
dump_modify 1 colname c_q[1] quatw colname c_q[2] quati colname c_q[3] quatj colname c_q[4] quatk
dump_modify 1 colname c_diameter[1] shapex colname c_diameter[2] shapey colname c_diameter[3] shapez
#dump   1   all   custom   100000   polymer.dump.*  id x y z  ix iy iz
#dump_modify   1   format line "%d %.5f %.5f %.5f %d %d %d"
#dump   id all atom 1000 dump.polymer

###################################################################
# Stiffness term
#
# E = K * (theta-thera0)**2, K>0
#
#angle_style   harmonic
#angle_coeff   1 2.0 120.0
###################################################################

###################################################################
# Pair interaction between non-bonded atoms
#
#  Lennard-Jones 12-6 potential with cutoff:
#  potential E=4epsilon[ (sigma/r)^12 - (sigma/r)^6]  for r<r_cut
#
#  1.12246152962189 = 2^(1/6) is the minimum of the potential

pair_style      lj/cut 1.12246152962189

#
#  pair_coeff for lj/cut, specify 4:
#    * atom type interacting with
#    * atom type
#    * epsilon (energy units)
#    * sigma (distance units)
#

pair_coeff      1 1 1.0 1.0

#
#  pair_modify shift yes adds a constant to the potential such
#  that E(r_cut)=0. Forces remains unchanged.
#

pair_modify     shift yes

###################################################

#comm_modify cutoff 6
#comm_style tiled
#balance 1.2 rcb

###
# Set up fixes
###

fix 1 all   nve   ###NVE ensemble

compute ekin all ke
compute epot all pe
variable ekin equal c_ekin
variable epot equal c_epot
variable etot equal c_ekin+c_epot

fix 2 all print 1 "$(step)  ekin = ${ekin} | epot = ${epot} | etot = ${etot}" screen yes

##### Sample thermodynamic info  (temperature, energy, pressure, etc.) #####
#thermo 10000
#thermo_style   custom   step  temp  epair  emol  press pxx pyy pzz  vol
############################################################################

timestep 0.001

run 10000

CITE-CITE-CITE-CITE-CITE-CITE-CITE-CITE-CITE-CITE-CITE-CITE-CITE

Your simulation uses code contributions which should be cited:

- Type Label Framework: https://doi.org/10.1021/acs.jpcb.3c08419

@Article{Gissinger24,
 author = {Jacob R. Gissinger, Ilia Nikiforov, Yaser Afshar, Brendon Waters, Moon-ki Choi, Daniel S. Karls, Alexander Stukowski, Wonpil Im, Hendrik Heinz, Axel Kohlmeyer, and Ellad B. Tadmor},
 title = {Type Label Framework for Bonded Force Fields in LAMMPS},
 journal = {J. Phys. Chem. B},
 year =    2024,
 volume =  128,
 number =  13,
 pages =   {3282–-3297}
}

CITE-CITE-CITE-CITE-CITE-CITE-CITE-CITE-CITE-CITE-CITE-CITE-CITE

Generated 0 of 0 mixed pair_coeff terms from geometric mixing rule
Neighbor list info ...
  update: every = 1 steps, delay = 0 steps, check = yes
  max neighbors/atom: 2000, page size: 100000
  master list distance cutoff = 2.6224615
  ghost atom cutoff = 2.6224615
  binsize = 1.3112308, bins = 4 4 7
  1 neighbor lists, perpetual/occasional/extra = 1 0 0
  (1) pair lj/cut, perpetual
      attributes: half, newton on
      pair build: half/bin/atomonly/newton
      stencil: half/bin/3d
      bin: standard
0  ekin = 3124.99986030197 | epot = 0 | etot = 3124.99986030197
Per MPI rank memory allocation (min/avg/max) = 4.747 | 4.747 | 4.747 Mbytes
   Step          Temp          E_pair         E_mol          TotEng         Press     
         0   2083.3332      0              0              1562.4999      16.276041    
1  ekin = 3124.99986030197 | epot = 0 | etot = 3124.99986030197
2  ekin = 3124.99986030197 | epot = 0 | etot = 3124.99986030197
3  ekin = 3124.99986030197 | epot = 0 | etot = 3124.99986030197
4  ekin = 3124.99986030197 | epot = 0 | etot = 3124.99986030197
5  ekin = 3124.99986030197 | epot = 0 | etot = 3124.99986030197
6  ekin = 3124.99986030197 | epot = 0 | etot = 3124.99986030197
7  ekin = 3124.99986030197 | epot = 0 | etot = 3124.99986030197
8  ekin = 3124.99986030197 | epot = 0 | etot = 3124.99986030197
9  ekin = 3124.99986030197 | epot = 0 | etot = 3124.99986030197
10  ekin = 3124.99986030197 | epot = 0 | etot = 3124.99986030197
11  ekin = 3124.99986030197 | epot = 0 | etot = 3124.99986030197
12  ekin = 3124.99986030197 | epot = 0 | etot = 3124.99986030197
13  ekin = 3124.99986030197 | epot = 0 | etot = 3124.99986030197
14  ekin = 3124.99986030197 | epot = 0 | etot = 3124.99986030197
15  ekin = 3124.99986030197 | epot = 0 | etot = 3124.99986030197
16  ekin = 3124.99986030197 | epot = 0 | etot = 3124.99986030197
17  ekin = 3124.99986030197 | epot = 0 | etot = 3124.99986030197
18  ekin = 3124.99986030197 | epot = 0 | etot = 3124.99986030197
19  ekin = 3124.99986030197 | epot = 0 | etot = 3124.99986030197
20  ekin = 3124.99986030197 | epot = 0 | etot = 3124.99986030197
21  ekin = 3124.99986030197 | epot = 0 | etot = 3124.99986030197
22  ekin = 3124.99986030197 | epot = 0 | etot = 3124.99986030197
23  ekin = 3124.99986030197 | epot = 0 | etot = 3124.99986030197
24  ekin = 3124.99986030197 | epot = 0 | etot = 3124.99986030197
25  ekin = 3124.99986030197 | epot = 0 | etot = 3124.99986030197
26  ekin = 3124.99986030197 | epot = 0 | etot = 3124.99986030197
27  ekin = 3124.99986030197 | epot = 0 | etot = 3124.99986030197
28  ekin = 3124.99986030197 | epot = 0 | etot = 3124.99986030197
29  ekin = 3124.99986030197 | epot = 0 | etot = 3124.99986030197
30  ekin = 3124.99986030197 | epot = 0 | etot = 3124.99986030197
31  ekin = 3124.99986030197 | epot = 0 | etot = 3124.99986030197
32  ekin = 3124.99986030197 | epot = 0 | etot = 3124.99986030197
33  ekin = 3124.99986030197 | epot = 0 | etot = 3124.99986030197
34  ekin = 3124.99986030197 | epot = 0 | etot = 3124.99986030197
35  ekin = 3124.99986030197 | epot = 0 | etot = 3124.99986030197
36  ekin = 3124.99986030197 | epot = 0 | etot = 3124.99986030197
37  ekin = 3124.99986030197 | epot = 0 | etot = 3124.99986030197
38  ekin = 3124.99986030197 | epot = 0 | etot = 3124.99986030197
39  ekin = 3124.99986030197 | epot = 0 | etot = 3124.99986030197
40  ekin = 3124.99986030197 | epot = 0 | etot = 3124.99986030197
41  ekin = 3124.99986030197 | epot = 0 | etot = 3124.99986030197
42  ekin = 3124.99986030197 | epot = 0 | etot = 3124.99986030197
43  ekin = 3124.99986030197 | epot = 0 | etot = 3124.99986030197
44  ekin = 3124.99986030197 | epot = 0 | etot = 3124.99986030197
45  ekin = 3124.99986030197 | epot = 0 | etot = 3124.99986030197
46  ekin = 3124.99986030197 | epot = 0 | etot = 3124.99986030197
47  ekin = 3124.99986030197 | epot = 0 | etot = 3124.99986030197
48  ekin = 3124.99986030197 | epot = 0 | etot = 3124.99986030197
49  ekin = 3124.99986030197 | epot = 0 | etot = 3124.99986030197
50  ekin = 3124.99986030197 | epot = 0 | etot = 3124.99986030197
51  ekin = 3124.99986030197 | epot = 0 | etot = 3124.99986030197
52  ekin = 3124.99986030197 | epot = 0 | etot = 3124.99986030197
53  ekin = 3124.99986030197 | epot = 0 | etot = 3124.99986030197
54  ekin = 3124.99986030197 | epot = 0 | etot = 3124.99986030197
55  ekin = 3124.99986030197 | epot = 0 | etot = 3124.99986030197
56  ekin = 3124.99986030197 | epot = 0 | etot = 3124.99986030197
57  ekin = 3124.99986030197 | epot = 0 | etot = 3124.99986030197
58  ekin = 3124.99986030197 | epot = 0 | etot = 3124.99986030197
59  ekin = 3124.99986030197 | epot = 0 | etot = 3124.99986030197
60  ekin = 3124.99986030197 | epot = 0 | etot = 3124.99986030197
61  ekin = 3124.99986030197 | epot = 0 | etot = 3124.99986030197
62  ekin = 3124.99986030197 | epot = 0 | etot = 3124.99986030197
63  ekin = 3124.99986030197 | epot = 0 | etot = 3124.99986030197
64  ekin = 3124.99986030197 | epot = 0 | etot = 3124.99986030197
65  ekin = 3124.99986030197 | epot = 0 | etot = 3124.99986030197
66  ekin = 3124.99986030197 | epot = 0 | etot = 3124.99986030197
67  ekin = 3124.99986030197 | epot = 0 | etot = 3124.99986030197
68  ekin = 3124.99986030197 | epot = 0 | etot = 3124.99986030197
69  ekin = 3124.99986030197 | epot = 0 | etot = 3124.99986030197
70  ekin = 3124.99986030197 | epot = 0 | etot = 3124.99986030197
71  ekin = 3124.99986030197 | epot = 0 | etot = 3124.99986030197
72  ekin = 3124.99986030197 | epot = 0 | etot = 3124.99986030197
73  ekin = 3124.99986030197 | epot = 0 | etot = 3124.99986030197
74  ekin = 3124.99986030197 | epot = 0 | etot = 3124.99986030197
75  ekin = 3124.99986030197 | epot = 0 | etot = 3124.99986030197
76  ekin = 3124.99986030197 | epot = 0 | etot = 3124.99986030197
77  ekin = 3124.99986030197 | epot = 0 | etot = 3124.99986030197
78  ekin = 3124.99986030197 | epot = 0 | etot = 3124.99986030197
79  ekin = 3124.99986030197 | epot = 0 | etot = 3124.99986030197
80  ekin = 3124.99986030197 | epot = 0 | etot = 3124.99986030197
81  ekin = 3124.99986030197 | epot = 0 | etot = 3124.99986030197
82  ekin = 3124.99986030197 | epot = 0 | etot = 3124.99986030197
83  ekin = 3124.99986030197 | epot = 0 | etot = 3124.99986030197
84  ekin = 3124.99986030197 | epot = 0 | etot = 3124.99986030197
85  ekin = 3124.99986030197 | epot = 0 | etot = 3124.99986030197
86  ekin = 3124.99986030197 | epot = 0 | etot = 3124.99986030197
87  ekin = 3124.99986030197 | epot = 0 | etot = 3124.99986030197
88  ekin = 3124.99986030197 | epot = 0 | etot = 3124.99986030197
89  ekin = 3124.99986030197 | epot = 0 | etot = 3124.99986030197
90  ekin = 3124.99986030197 | epot = 0 | etot = 3124.99986030197
91  ekin = 3124.99986030197 | epot = 0 | etot = 3124.99986030197
92  ekin = 3124.99986030197 | epot = 0 | etot = 3124.99986030197
93  ekin = 3124.99986030197 | epot = 0 | etot = 3124.99986030197
94  ekin = 3124.99986030197 | epot = 0 | etot = 3124.99986030197
95  ekin = 3124.99986030197 | epot = 0 | etot = 3124.99986030197
96  ekin = 3124.99986030197 | epot = 0 | etot = 3124.99986030197
97  ekin = 3124.99986030197 | epot = 0 | etot = 3124.99986030197
98  ekin = 3124.99986030197 | epot = 0 | etot = 3124.99986030197
99  ekin = 3124.99986030197 | epot = 0 | etot = 3124.99986030197
100  ekin = 3124.99986030197 | epot = 0 | etot = 3124.99986030197
101  ekin = 3124.99986030197 | epot = 0 | etot = 3124.99986030197
102  ekin = 3124.99986030197 | epot = 0 | etot = 3124.99986030197
103  ekin = 3124.99986030197 | epot = 0 | etot = 3124.99986030197
104  ekin = 3124.99986030197 | epot = 0 | etot = 3124.99986030197
105  ekin = 3124.99986030197 | epot = 0 | etot = 3124.99986030197
106  ekin = 3124.99986030197 | epot = 0 | etot = 3124.99986030197
107  ekin = 3124.99986030197 | epot = 0 | etot = 3124.99986030197
108  ekin = 3124.99986030197 | epot = 0 | etot = 3124.99986030197
109  ekin = 3124.99986030197 | epot = 0 | etot = 3124.99986030197
110  ekin = 3124.99986030197 | epot = 0 | etot = 3124.99986030197
111  ekin = 3124.99986030197 | epot = 0 | etot = 3124.99986030197
112  ekin = 3124.99986030197 | epot = 0 | etot = 3124.99986030197
113  ekin = 3124.99986030197 | epot = 0 | etot = 3124.99986030197
114  ekin = 3124.99986030197 | epot = 0 | etot = 3124.99986030197
115  ekin = 3124.99986030197 | epot = 0 | etot = 3124.99986030197
116  ekin = 3124.99986030197 | epot = 0 | etot = 3124.99986030197
117  ekin = 3124.99986030197 | epot = 0 | etot = 3124.99986030197
118  ekin = 3124.99986030197 | epot = 0 | etot = 3124.99986030197
119  ekin = 3124.99986030197 | epot = 0 | etot = 3124.99986030197
120  ekin = 3124.99986030197 | epot = 0 | etot = 3124.99986030197
121  ekin = 3124.99986030197 | epot = 0 | etot = 3124.99986030197
122  ekin = 3124.99986030197 | epot = 0 | etot = 3124.99986030197
123  ekin = 3124.99986030197 | epot = 0 | etot = 3124.99986030197
124  ekin = 3124.99986030197 | epot = 0 | etot = 3124.99986030197
125  ekin = 3124.99986030197 | epot = 0 | etot = 3124.99986030197
126  ekin = 3124.99986030197 | epot = 0 | etot = 3124.99986030197
127  ekin = 3124.99986030197 | epot = 0 | etot = 3124.99986030197
128  ekin = 3124.99986030197 | epot = 0 | etot = 3124.99986030197
129  ekin = 3124.99986030197 | epot = 0 | etot = 3124.99986030197
130  ekin = 3124.99986030197 | epot = 0 | etot = 3124.99986030197
131  ekin = 3124.99986030197 | epot = 0 | etot = 3124.99986030197
132  ekin = 3124.99986030197 | epot = 0 | etot = 3124.99986030197
133  ekin = 3124.99986030197 | epot = 0 | etot = 3124.99986030197
134  ekin = 3124.99986030197 | epot = 0 | etot = 3124.99986030197
135  ekin = 3124.99986030197 | epot = 0 | etot = 3124.99986030197
136  ekin = 3124.99986030197 | epot = 0 | etot = 3124.99986030197
137  ekin = 3124.99986030197 | epot = 0 | etot = 3124.99986030197
138  ekin = 3124.99986030197 | epot = 0 | etot = 3124.99986030197
139  ekin = 3124.99986030197 | epot = 0 | etot = 3124.99986030197
140  ekin = 3124.99986030197 | epot = 0 | etot = 3124.99986030197
141  ekin = 3124.99986030197 | epot = 0 | etot = 3124.99986030197
142  ekin = 3124.99986030197 | epot = 0 | etot = 3124.99986030197
143  ekin = 3124.99986030197 | epot = 0 | etot = 3124.99986030197
144  ekin = 3124.99986030197 | epot = 0 | etot = 3124.99986030197
145  ekin = 3124.99986030197 | epot = 0 | etot = 3124.99986030197
146  ekin = 3124.99986030197 | epot = 0 | etot = 3124.99986030197
147  ekin = 3124.99986030197 | epot = 0 | etot = 3124.99986030197
148  ekin = 3124.99986030197 | epot = 0 | etot = 3124.99986030197
149  ekin = 3124.99986030197 | epot = 0 | etot = 3124.99986030197
150  ekin = 3124.99986030197 | epot = 0 | etot = 3124.99986030197
151  ekin = 3124.99986030197 | epot = 0 | etot = 3124.99986030197
152  ekin = 3124.99986030197 | epot = 0 | etot = 3124.99986030197
153  ekin = 3124.99986030197 | epot = 0 | etot = 3124.99986030197
154  ekin = 3124.99986030197 | epot = 0 | etot = 3124.99986030197
155  ekin = 3124.99986030197 | epot = 0 | etot = 3124.99986030197
156  ekin = 3124.99986030197 | epot = 0 | etot = 3124.99986030197
157  ekin = 3124.99986030197 | epot = 0 | etot = 3124.99986030197
158  ekin = 3124.99986030197 | epot = 0 | etot = 3124.99986030197
159  ekin = 3124.99986030197 | epot = 0 | etot = 3124.99986030197
160  ekin = 3124.99986030197 | epot = 0 | etot = 3124.99986030197
161  ekin = 3124.99986030197 | epot = 0 | etot = 3124.99986030197
162  ekin = 3124.99986030197 | epot = 0 | etot = 3124.99986030197
163  ekin = 3124.99986030197 | epot = 0 | etot = 3124.99986030197
164  ekin = 3124.99986030197 | epot = 0 | etot = 3124.99986030197
165  ekin = 3124.99986030197 | epot = 0 | etot = 3124.99986030197
166  ekin = 3124.99986030197 | epot = 0 | etot = 3124.99986030197
167  ekin = 3124.99986030197 | epot = 0 | etot = 3124.99986030197
168  ekin = 3124.99986030197 | epot = 0 | etot = 3124.99986030197
169  ekin = 3124.99986030197 | epot = 0 | etot = 3124.99986030197
170  ekin = 3124.99986030197 | epot = 0 | etot = 3124.99986030197
171  ekin = 3124.99986030197 | epot = 0 | etot = 3124.99986030197
172  ekin = 3124.99986030197 | epot = 0 | etot = 3124.99986030197
173  ekin = 3124.99986030197 | epot = 0 | etot = 3124.99986030197
174  ekin = 3124.99986030197 | epot = 0 | etot = 3124.99986030197
175  ekin = 3124.99986030197 | epot = 0 | etot = 3124.99986030197
176  ekin = 3124.99986030197 | epot = 0 | etot = 3124.99986030197
177  ekin = 3124.99986030197 | epot = 0 | etot = 3124.99986030197
178  ekin = 3124.99986030197 | epot = 0 | etot = 3124.99986030197
179  ekin = 3124.99986030197 | epot = 0 | etot = 3124.99986030197
180  ekin = 3124.99986030197 | epot = 0 | etot = 3124.99986030197
181  ekin = 3124.99986030197 | epot = 0 | etot = 3124.99986030197
182  ekin = 3124.99986030197 | epot = 0 | etot = 3124.99986030197
183  ekin = 3124.99986030197 | epot = 0 | etot = 3124.99986030197
184  ekin = 3124.99986030197 | epot = 0 | etot = 3124.99986030197
185  ekin = 3124.99986030197 | epot = 0 | etot = 3124.99986030197
186  ekin = 3124.99986030197 | epot = 0 | etot = 3124.99986030197
187  ekin = 3124.99986030197 | epot = 0 | etot = 3124.99986030197
188  ekin = 3124.99986030197 | epot = 0 | etot = 3124.99986030197
189  ekin = 3124.99986030197 | epot = 0 | etot = 3124.99986030197
190  ekin = 3124.99986030197 | epot = 0 | etot = 3124.99986030197
191  ekin = 3124.99986030197 | epot = 0 | etot = 3124.99986030197
192  ekin = 3124.99986030197 | epot = 0 | etot = 3124.99986030197
193  ekin = 3124.99986030197 | epot = 0 | etot = 3124.99986030197
194  ekin = 3124.99986030197 | epot = 0 | etot = 3124.99986030197
195  ekin = 3124.99986030197 | epot = 0 | etot = 3124.99986030197
196  ekin = 3124.99986030197 | epot = 0 | etot = 3124.99986030197
197  ekin = 3124.99986030197 | epot = 0 | etot = 3124.99986030197
198  ekin = 3124.99986030197 | epot = 0 | etot = 3124.99986030197
199  ekin = 3124.99986030197 | epot = 0 | etot = 3124.99986030197
200  ekin = 3124.99986030197 | epot = 0 | etot = 3124.99986030197
201  ekin = 3124.99986030197 | epot = 0 | etot = 3124.99986030197
202  ekin = 3124.99986030197 | epot = 0 | etot = 3124.99986030197
203  ekin = 3124.99986030197 | epot = 0 | etot = 3124.99986030197
204  ekin = 3124.99986030197 | epot = 0 | etot = 3124.99986030197
205  ekin = 3124.99986030197 | epot = 0 | etot = 3124.99986030197
206  ekin = 3124.99986030197 | epot = 0 | etot = 3124.99986030197
207  ekin = 3124.99986030197 | epot = 0 | etot = 3124.99986030197
208  ekin = 3124.99986030197 | epot = 0 | etot = 3124.99986030197
209  ekin = 3124.99986030197 | epot = 0 | etot = 3124.99986030197
210  ekin = 3124.99986030197 | epot = 0 | etot = 3124.99986030197
211  ekin = 3124.99986030197 | epot = 0 | etot = 3124.99986030197
212  ekin = 3124.99986030197 | epot = 0 | etot = 3124.99986030197
213  ekin = 3124.99986030197 | epot = 0 | etot = 3124.99986030197
214  ekin = 3124.99986030197 | epot = 0 | etot = 3124.99986030197
215  ekin = 3124.99986030197 | epot = 0 | etot = 3124.99986030197
216  ekin = 3124.99986030197 | epot = 0 | etot = 3124.99986030197
217  ekin = 3124.99986030197 | epot = 0 | etot = 3124.99986030197
218  ekin = 3124.99986030197 | epot = 0 | etot = 3124.99986030197
219  ekin = 3124.99986030197 | epot = 0 | etot = 3124.99986030197
220  ekin = 3124.99986030197 | epot = 0 | etot = 3124.99986030197
221  ekin = 3124.99986030197 | epot = 0 | etot = 3124.99986030197
222  ekin = 3124.99986030197 | epot = 0 | etot = 3124.99986030197
223  ekin = 3124.99986030197 | epot = 0 | etot = 3124.99986030197
224  ekin = 3124.99986030197 | epot = 0 | etot = 3124.99986030197
225  ekin = 3124.99986030197 | epot = 0 | etot = 3124.99986030197
226  ekin = 3124.99986030197 | epot = 0 | etot = 3124.99986030197
227  ekin = 3124.99986030197 | epot = 0 | etot = 3124.99986030197
228  ekin = 3124.99986030197 | epot = 0 | etot = 3124.99986030197
229  ekin = 3124.99986030197 | epot = 0 | etot = 3124.99986030197
230  ekin = 3124.99986030197 | epot = 0 | etot = 3124.99986030197
231  ekin = 3124.99986030197 | epot = 0 | etot = 3124.99986030197
232  ekin = 3124.99986030197 | epot = 0 | etot = 3124.99986030197
233  ekin = 3124.99986030197 | epot = 0 | etot = 3124.99986030197
234  ekin = 3124.99986030197 | epot = 0 | etot = 3124.99986030197
235  ekin = 3124.99986030197 | epot = 0 | etot = 3124.99986030197
236  ekin = 3124.99986030197 | epot = 0 | etot = 3124.99986030197
237  ekin = 3124.99986030197 | epot = 0 | etot = 3124.99986030197
238  ekin = 3124.99986030197 | epot = 0 | etot = 3124.99986030197
239  ekin = 3124.99986030197 | epot = 0 | etot = 3124.99986030197
240  ekin = 3124.99986030197 | epot = 0 | etot = 3124.99986030197
241  ekin = 3124.99986030197 | epot = 0 | etot = 3124.99986030197
242  ekin = 3124.99986030197 | epot = 0 | etot = 3124.99986030197
243  ekin = 3124.99986030197 | epot = 0 | etot = 3124.99986030197
244  ekin = 3124.99986030197 | epot = 0 | etot = 3124.99986030197
245  ekin = 3124.99986030197 | epot = 0 | etot = 3124.99986030197
246  ekin = 3124.99986030197 | epot = 0 | etot = 3124.99986030197
247  ekin = 3124.99986030197 | epot = 0 | etot = 3124.99986030197
248  ekin = 3124.99986030197 | epot = 0 | etot = 3124.99986030197
249  ekin = 3124.99986030197 | epot = 0 | etot = 3124.99986030197
250  ekin = 3124.99986030197 | epot = 0 | etot = 3124.99986030197
251  ekin = 3124.99986030197 | epot = 0 | etot = 3124.99986030197
252  ekin = 3124.99986030197 | epot = 0 | etot = 3124.99986030197
253  ekin = 3124.99986030197 | epot = 0 | etot = 3124.99986030197
254  ekin = 3124.99986030197 | epot = 0 | etot = 3124.99986030197
255  ekin = 3124.99986030197 | epot = 0 | etot = 3124.99986030197
256  ekin = 3124.99986030197 | epot = 0 | etot = 3124.99986030197
257  ekin = 3124.99986030197 | epot = 0 | etot = 3124.99986030197
258  ekin = 3124.99986030197 | epot = 0 | etot = 3124.99986030197
259  ekin = 3124.99986030197 | epot = 0 | etot = 3124.99986030197
260  ekin = 3124.99986030197 | epot = 0 | etot = 3124.99986030197
261  ekin = 3124.99986030197 | epot = 0 | etot = 3124.99986030197
262  ekin = 3124.99986030197 | epot = 0 | etot = 3124.99986030197
263  ekin = 3124.99986030197 | epot = 0 | etot = 3124.99986030197
264  ekin = 3124.99986030197 | epot = 0 | etot = 3124.99986030197
265  ekin = 3124.99986030197 | epot = 0 | etot = 3124.99986030197
266  ekin = 3124.99986030197 | epot = 0 | etot = 3124.99986030197
267  ekin = 3124.99986030197 | epot = 0 | etot = 3124.99986030197
268  ekin = 3124.99986030197 | epot = 0 | etot = 3124.99986030197
269  ekin = 3124.99986030197 | epot = 0 | etot = 3124.99986030197
270  ekin = 3124.99986030197 | epot = 0 | etot = 3124.99986030197
271  ekin = 3124.99986030197 | epot = 0 | etot = 3124.99986030197
272  ekin = 3124.99986030197 | epot = 0 | etot = 3124.99986030197
273  ekin = 3124.99986030197 | epot = 0 | etot = 3124.99986030197
274  ekin = 3124.99986030197 | epot = 0 | etot = 3124.99986030197
275  ekin = 3124.99986030197 | epot = 0 | etot = 3124.99986030197
276  ekin = 3124.99986030197 | epot = 0 | etot = 3124.99986030197
277  ekin = 3124.99986030197 | epot = 0 | etot = 3124.99986030197
278  ekin = 3124.99986030197 | epot = 0 | etot = 3124.99986030197
279  ekin = 3124.99986030197 | epot = 0 | etot = 3124.99986030197
280  ekin = 3124.99986030197 | epot = 0 | etot = 3124.99986030197
281  ekin = 3124.99986030197 | epot = 0 | etot = 3124.99986030197
282  ekin = 3124.99986030197 | epot = 0 | etot = 3124.99986030197
283  ekin = 3124.99986030197 | epot = 0 | etot = 3124.99986030197
284  ekin = 3124.99986030197 | epot = 0 | etot = 3124.99986030197
285  ekin = 3124.99986030197 | epot = 0 | etot = 3124.99986030197
286  ekin = 3124.99986030197 | epot = 0 | etot = 3124.99986030197
287  ekin = 3124.99986030197 | epot = 0 | etot = 3124.99986030197
288  ekin = 3124.99986030197 | epot = 0 | etot = 3124.99986030197
289  ekin = 3124.99986030197 | epot = 0 | etot = 3124.99986030197
290  ekin = 3124.99986030197 | epot = 0 | etot = 3124.99986030197
291  ekin = 3124.99986030197 | epot = 0 | etot = 3124.99986030197
292  ekin = 3124.99986030197 | epot = 0 | etot = 3124.99986030197
293  ekin = 3124.99986030197 | epot = 0 | etot = 3124.99986030197
294  ekin = 3124.99986030197 | epot = 0 | etot = 3124.99986030197
295  ekin = 3124.99986030197 | epot = 0 | etot = 3124.99986030197
296  ekin = 3124.99986030197 | epot = 0 | etot = 3124.99986030197
297  ekin = 3124.99986030197 | epot = 0 | etot = 3124.99986030197
298  ekin = 3124.99986030197 | epot = 0 | etot = 3124.99986030197
299  ekin = 3124.99986030197 | epot = 0 | etot = 3124.99986030197
300  ekin = 3124.99986030197 | epot = 0 | etot = 3124.99986030197
301  ekin = 3124.99986030197 | epot = 0 | etot = 3124.99986030197
302  ekin = 3124.99986030197 | epot = 0 | etot = 3124.99986030197
303  ekin = 3124.99986030197 | epot = 0 | etot = 3124.99986030197
304  ekin = 3124.99986030197 | epot = 0 | etot = 3124.99986030197
305  ekin = 3124.99986030197 | epot = 0 | etot = 3124.99986030197
306  ekin = 3124.99986030197 | epot = 0 | etot = 3124.99986030197
307  ekin = 3124.99986030197 | epot = 0 | etot = 3124.99986030197
308  ekin = 3124.99986030197 | epot = 0 | etot = 3124.99986030197
309  ekin = 3124.99986030197 | epot = 0 | etot = 3124.99986030197
310  ekin = 3124.99986030197 | epot = 0 | etot = 3124.99986030197
311  ekin = 3124.99986030197 | epot = 0 | etot = 3124.99986030197
312  ekin = 3124.99986030197 | epot = 0 | etot = 3124.99986030197
313  ekin = 3124.99986030197 | epot = 0 | etot = 3124.99986030197
314  ekin = 3124.99986030197 | epot = 0 | etot = 3124.99986030197
315  ekin = 3124.99986030197 | epot = 0 | etot = 3124.99986030197
316  ekin = 3124.99986030197 | epot = 0 | etot = 3124.99986030197
317  ekin = 3124.99986030197 | epot = 0 | etot = 3124.99986030197
318  ekin = 3124.99986030197 | epot = 0 | etot = 3124.99986030197
319  ekin = 3124.99986030197 | epot = 0 | etot = 3124.99986030197
320  ekin = 3124.99986030197 | epot = 0 | etot = 3124.99986030197
321  ekin = 3124.99986030197 | epot = 0 | etot = 3124.99986030197
322  ekin = 3124.99986030197 | epot = 0 | etot = 3124.99986030197
323  ekin = 3124.99986030197 | epot = 0 | etot = 3124.99986030197
324  ekin = 3124.99986030197 | epot = 0 | etot = 3124.99986030197
325  ekin = 3124.99986030197 | epot = 0 | etot = 3124.99986030197
326  ekin = 3124.99986030197 | epot = 0 | etot = 3124.99986030197
327  ekin = 3124.99986030197 | epot = 0 | etot = 3124.99986030197
328  ekin = 3124.99986030197 | epot = 0 | etot = 3124.99986030197
329  ekin = 3124.99986030197 | epot = 0 | etot = 3124.99986030197
330  ekin = 3124.99986030197 | epot = 0 | etot = 3124.99986030197
331  ekin = 3124.99986030197 | epot = 0 | etot = 3124.99986030197
332  ekin = 3124.99986030197 | epot = 0 | etot = 3124.99986030197
333  ekin = 3124.99986030197 | epot = 0 | etot = 3124.99986030197
334  ekin = 3124.99986030197 | epot = 0 | etot = 3124.99986030197
335  ekin = 3124.99986030197 | epot = 0 | etot = 3124.99986030197
336  ekin = 3124.99986030197 | epot = 0 | etot = 3124.99986030197
337  ekin = 3124.99986030197 | epot = 0 | etot = 3124.99986030197
338  ekin = 3124.99986030197 | epot = 0 | etot = 3124.99986030197
339  ekin = 3124.99986030197 | epot = 0 | etot = 3124.99986030197
340  ekin = 3124.99986030197 | epot = 0 | etot = 3124.99986030197
341  ekin = 3124.99986030197 | epot = 0 | etot = 3124.99986030197
342  ekin = 3124.99986030197 | epot = 0 | etot = 3124.99986030197
343  ekin = 3124.99986030197 | epot = 0 | etot = 3124.99986030197
344  ekin = 3124.99986030197 | epot = 0 | etot = 3124.99986030197
345  ekin = 3124.99986030197 | epot = 0 | etot = 3124.99986030197
346  ekin = 3124.99986030197 | epot = 0 | etot = 3124.99986030197
347  ekin = 3124.99986030197 | epot = 0 | etot = 3124.99986030197
348  ekin = 3124.99986030197 | epot = 0 | etot = 3124.99986030197
349  ekin = 3124.99986030197 | epot = 0 | etot = 3124.99986030197
350  ekin = 3124.99986030197 | epot = 0 | etot = 3124.99986030197
351  ekin = 3124.99986030197 | epot = 0 | etot = 3124.99986030197
352  ekin = 3124.99986030197 | epot = 0 | etot = 3124.99986030197
353  ekin = 3124.99986030197 | epot = 0 | etot = 3124.99986030197
354  ekin = 3124.99986030197 | epot = 0 | etot = 3124.99986030197
355  ekin = 3124.99986030197 | epot = 0 | etot = 3124.99986030197
356  ekin = 3124.99986030197 | epot = 0 | etot = 3124.99986030197
357  ekin = 3124.99986030197 | epot = 0 | etot = 3124.99986030197
358  ekin = 3124.99986030197 | epot = 0 | etot = 3124.99986030197
359  ekin = 3124.99986030197 | epot = 0 | etot = 3124.99986030197
360  ekin = 3124.99986030197 | epot = 0 | etot = 3124.99986030197
361  ekin = 3124.99986030197 | epot = 0 | etot = 3124.99986030197
362  ekin = 3124.99986030197 | epot = 0 | etot = 3124.99986030197
363  ekin = 3124.99986030197 | epot = 0 | etot = 3124.99986030197
364  ekin = 3124.99986030197 | epot = 0 | etot = 3124.99986030197
365  ekin = 3124.99986030197 | epot = 0 | etot = 3124.99986030197
366  ekin = 3124.99986030197 | epot = 0 | etot = 3124.99986030197
367  ekin = 3124.99986030197 | epot = 0 | etot = 3124.99986030197
368  ekin = 3124.99986030197 | epot = 0 | etot = 3124.99986030197
369  ekin = 3124.99986030197 | epot = 0 | etot = 3124.99986030197
370  ekin = 3124.99986030197 | epot = 0 | etot = 3124.99986030197
371  ekin = 3124.99986030197 | epot = 0 | etot = 3124.99986030197
372  ekin = 3124.99986030197 | epot = 0 | etot = 3124.99986030197
373  ekin = 3124.99986030197 | epot = 0 | etot = 3124.99986030197
374  ekin = 3124.99986030197 | epot = 0 | etot = 3124.99986030197
375  ekin = 3124.99986030197 | epot = 0 | etot = 3124.99986030197
376  ekin = 3124.99986030197 | epot = 0 | etot = 3124.99986030197
377  ekin = 3124.99986030197 | epot = 0 | etot = 3124.99986030197
378  ekin = 3124.99986030197 | epot = 0 | etot = 3124.99986030197
379  ekin = 3124.99986030197 | epot = 0 | etot = 3124.99986030197
380  ekin = 3124.99986030197 | epot = 0 | etot = 3124.99986030197
381  ekin = 3124.99986030197 | epot = 0 | etot = 3124.99986030197
382  ekin = 3124.99986030197 | epot = 0 | etot = 3124.99986030197
383  ekin = 3124.99986030197 | epot = 0 | etot = 3124.99986030197
384  ekin = 3124.99986030197 | epot = 0 | etot = 3124.99986030197
385  ekin = 3124.99986030197 | epot = 0 | etot = 3124.99986030197
386  ekin = 3124.99986030197 | epot = 0 | etot = 3124.99986030197
387  ekin = 3124.99986030197 | epot = 0 | etot = 3124.99986030197
388  ekin = 3124.99986030197 | epot = 0 | etot = 3124.99986030197
389  ekin = 3124.99986030197 | epot = 0 | etot = 3124.99986030197
390  ekin = 3124.99986030197 | epot = 0 | etot = 3124.99986030197
391  ekin = 3124.99986030197 | epot = 0 | etot = 3124.99986030197
392  ekin = 3124.99986030197 | epot = 0 | etot = 3124.99986030197
393  ekin = 3124.99986030197 | epot = 0 | etot = 3124.99986030197
394  ekin = 3124.99986030197 | epot = 0 | etot = 3124.99986030197
395  ekin = 3124.99986030197 | epot = 0 | etot = 3124.99986030197
396  ekin = 3124.99986030197 | epot = 0 | etot = 3124.99986030197
397  ekin = 3124.99986030197 | epot = 0 | etot = 3124.99986030197
398  ekin = 3124.99986030197 | epot = 0 | etot = 3124.99986030197
399  ekin = 3124.99986030197 | epot = 0 | etot = 3124.99986030197
400  ekin = 3124.99986030197 | epot = 0 | etot = 3124.99986030197
401  ekin = 3124.99986030197 | epot = 0 | etot = 3124.99986030197
402  ekin = 3124.99986030197 | epot = 0 | etot = 3124.99986030197
403  ekin = 3124.99986030197 | epot = 0 | etot = 3124.99986030197
404  ekin = 3124.99986030197 | epot = 0 | etot = 3124.99986030197
405  ekin = 3124.99986030197 | epot = 0 | etot = 3124.99986030197
406  ekin = 3124.99986030197 | epot = 0 | etot = 3124.99986030197
407  ekin = 3124.99986030197 | epot = 0 | etot = 3124.99986030197
408  ekin = 3124.99986030197 | epot = 0 | etot = 3124.99986030197
409  ekin = 3124.99986030197 | epot = 0 | etot = 3124.99986030197
410  ekin = 3124.99986030197 | epot = 0 | etot = 3124.99986030197
411  ekin = 3124.99986030197 | epot = 0 | etot = 3124.99986030197
412  ekin = 3124.99986030197 | epot = 0 | etot = 3124.99986030197
413  ekin = 3124.99986030197 | epot = 0 | etot = 3124.99986030197
414  ekin = 3124.99986030197 | epot = 0 | etot = 3124.99986030197
415  ekin = 3124.99986030197 | epot = 0 | etot = 3124.99986030197
416  ekin = 3124.99986030197 | epot = 0 | etot = 3124.99986030197
417  ekin = 3124.99986030197 | epot = 0 | etot = 3124.99986030197
418  ekin = 3124.99986030197 | epot = 0 | etot = 3124.99986030197
419  ekin = 3124.99986030197 | epot = 0 | etot = 3124.99986030197
420  ekin = 3124.99986030197 | epot = 0 | etot = 3124.99986030197
421  ekin = 3124.99986030197 | epot = 0 | etot = 3124.99986030197
422  ekin = 3124.99986030197 | epot = 0 | etot = 3124.99986030197
423  ekin = 3124.99986030197 | epot = 0 | etot = 3124.99986030197
424  ekin = 3124.99986030197 | epot = 0 | etot = 3124.99986030197
425  ekin = 3124.99986030197 | epot = 0 | etot = 3124.99986030197
426  ekin = 3124.99986030197 | epot = 0 | etot = 3124.99986030197
427  ekin = 3124.99986030197 | epot = 0 | etot = 3124.99986030197
428  ekin = 3124.99986030197 | epot = 0 | etot = 3124.99986030197
429  ekin = 3124.99986030197 | epot = 0 | etot = 3124.99986030197
430  ekin = 3124.99986030197 | epot = 0 | etot = 3124.99986030197
431  ekin = 3124.99986030197 | epot = 0 | etot = 3124.99986030197
432  ekin = 3124.99986030197 | epot = 0 | etot = 3124.99986030197
433  ekin = 3124.99986030197 | epot = 0 | etot = 3124.99986030197
434  ekin = 3124.99986030197 | epot = 0 | etot = 3124.99986030197
435  ekin = 3124.99986030197 | epot = 0 | etot = 3124.99986030197
436  ekin = 3124.99986030197 | epot = 0 | etot = 3124.99986030197
437  ekin = 3124.99986030197 | epot = 0 | etot = 3124.99986030197
438  ekin = 3124.99986030197 | epot = 0 | etot = 3124.99986030197
439  ekin = 3124.99986030197 | epot = 0 | etot = 3124.99986030197
440  ekin = 3124.99986030197 | epot = 0 | etot = 3124.99986030197
441  ekin = 3124.99986030197 | epot = 0 | etot = 3124.99986030197
442  ekin = 3124.99986030197 | epot = 0 | etot = 3124.99986030197
443  ekin = 3124.99986030197 | epot = 0 | etot = 3124.99986030197
444  ekin = 3124.99986030197 | epot = 0 | etot = 3124.99986030197
445  ekin = 3124.99986030197 | epot = 0 | etot = 3124.99986030197
446  ekin = 3124.99986030197 | epot = 0 | etot = 3124.99986030197
447  ekin = 3124.99986030197 | epot = 0 | etot = 3124.99986030197
448  ekin = 3124.99986030197 | epot = 0 | etot = 3124.99986030197
449  ekin = 3124.99986030197 | epot = 0 | etot = 3124.99986030197
450  ekin = 3124.99986030197 | epot = 0 | etot = 3124.99986030197
451  ekin = 3124.99986030197 | epot = 0 | etot = 3124.99986030197
452  ekin = 3124.99986030197 | epot = 0 | etot = 3124.99986030197
453  ekin = 3124.99986030197 | epot = 0 | etot = 3124.99986030197
454  ekin = 3124.99986030197 | epot = 0 | etot = 3124.99986030197
455  ekin = 3124.99986030197 | epot = 0 | etot = 3124.99986030197
456  ekin = 3124.99986030197 | epot = 0 | etot = 3124.99986030197
457  ekin = 3124.99986030197 | epot = 0 | etot = 3124.99986030197
458  ekin = 3124.99986030197 | epot = 0 | etot = 3124.99986030197
459  ekin = 3124.99986030197 | epot = 0 | etot = 3124.99986030197
460  ekin = 3124.99986030197 | epot = 0 | etot = 3124.99986030197
461  ekin = 3124.99986030197 | epot = 0 | etot = 3124.99986030197
462  ekin = 3124.99986030197 | epot = 0 | etot = 3124.99986030197
463  ekin = 3124.99986030197 | epot = 0 | etot = 3124.99986030197
464  ekin = 3124.99986030197 | epot = 0 | etot = 3124.99986030197
465  ekin = 3124.99986030197 | epot = 0 | etot = 3124.99986030197
466  ekin = 3124.99986030197 | epot = 0 | etot = 3124.99986030197
467  ekin = 3124.99986030197 | epot = 0 | etot = 3124.99986030197
468  ekin = 3124.99986030197 | epot = 0 | etot = 3124.99986030197
469  ekin = 3124.99986030197 | epot = 0 | etot = 3124.99986030197
470  ekin = 3124.99986030197 | epot = 0 | etot = 3124.99986030197
471  ekin = 3124.99986030197 | epot = 0 | etot = 3124.99986030197
472  ekin = 3124.99986030197 | epot = 0 | etot = 3124.99986030197
473  ekin = 3124.99986030197 | epot = 0 | etot = 3124.99986030197
474  ekin = 3124.99986030197 | epot = 0 | etot = 3124.99986030197
475  ekin = 3124.99986030197 | epot = 0 | etot = 3124.99986030197
476  ekin = 3124.99986030197 | epot = 0 | etot = 3124.99986030197
477  ekin = 3124.99986030197 | epot = 0 | etot = 3124.99986030197
478  ekin = 3124.99986030197 | epot = 0 | etot = 3124.99986030197
479  ekin = 3124.99986030197 | epot = 0 | etot = 3124.99986030197
480  ekin = 3124.99986030197 | epot = 0 | etot = 3124.99986030197
481  ekin = 3124.99986030197 | epot = 0 | etot = 3124.99986030197
482  ekin = 3124.99986030197 | epot = 0 | etot = 3124.99986030197
483  ekin = 3124.99986030197 | epot = 0 | etot = 3124.99986030197
484  ekin = 3124.99986030197 | epot = 0 | etot = 3124.99986030197
485  ekin = 3124.99986030197 | epot = 0 | etot = 3124.99986030197
486  ekin = 3124.99986030197 | epot = 0 | etot = 3124.99986030197
487  ekin = 3124.99986030197 | epot = 0 | etot = 3124.99986030197
488  ekin = 3124.99986030197 | epot = 0 | etot = 3124.99986030197
489  ekin = 3124.99986030197 | epot = 0 | etot = 3124.99986030197
490  ekin = 3124.99986030197 | epot = 0 | etot = 3124.99986030197
491  ekin = 3124.99986030197 | epot = 0 | etot = 3124.99986030197
492  ekin = 3124.99986030197 | epot = 0 | etot = 3124.99986030197
493  ekin = 3124.99986030197 | epot = 0 | etot = 3124.99986030197
494  ekin = 3124.99986030197 | epot = 0 | etot = 3124.99986030197
495  ekin = 3124.99986030197 | epot = 0 | etot = 3124.99986030197
496  ekin = 3124.99986030197 | epot = 0 | etot = 3124.99986030197
497  ekin = 3124.99986030197 | epot = 0 | etot = 3124.99986030197
498  ekin = 3124.99986030197 | epot = 0 | etot = 3124.99986030197
499  ekin = 3124.99986030197 | epot = 0 | etot = 3124.99986030197
500  ekin = 3124.99986030197 | epot = 0 | etot = 3124.99986030197
501  ekin = 3124.99986030197 | epot = 0 | etot = 3124.99986030197
502  ekin = 3124.99986030197 | epot = 0 | etot = 3124.99986030197
503  ekin = 3124.99986030197 | epot = 0 | etot = 3124.99986030197
504  ekin = 3124.99986030197 | epot = 0 | etot = 3124.99986030197
505  ekin = 3124.99986030197 | epot = 0 | etot = 3124.99986030197
506  ekin = 3124.99986030197 | epot = 0 | etot = 3124.99986030197
507  ekin = 3124.99986030197 | epot = 0 | etot = 3124.99986030197
508  ekin = 3124.99986030197 | epot = 0 | etot = 3124.99986030197
509  ekin = 3124.99986030197 | epot = 0 | etot = 3124.99986030197
510  ekin = 3124.99986030197 | epot = 0 | etot = 3124.99986030197
511  ekin = 3124.99986030197 | epot = 0 | etot = 3124.99986030197
512  ekin = 3124.99986030197 | epot = 0 | etot = 3124.99986030197
513  ekin = 3124.99986030197 | epot = 0 | etot = 3124.99986030197
514  ekin = 3124.99986030197 | epot = 0 | etot = 3124.99986030197
515  ekin = 3124.99986030197 | epot = 0 | etot = 3124.99986030197
516  ekin = 3124.99986030197 | epot = 0 | etot = 3124.99986030197
517  ekin = 3124.99986030197 | epot = 0 | etot = 3124.99986030197
518  ekin = 3124.99986030197 | epot = 0 | etot = 3124.99986030197
519  ekin = 3124.99986030197 | epot = 0 | etot = 3124.99986030197
520  ekin = 3124.99986030197 | epot = 0 | etot = 3124.99986030197
521  ekin = 3124.99986030197 | epot = 0 | etot = 3124.99986030197
522  ekin = 3124.99986030197 | epot = 0 | etot = 3124.99986030197
523  ekin = 3124.99986030197 | epot = 0 | etot = 3124.99986030197
524  ekin = 3124.99986030197 | epot = 0 | etot = 3124.99986030197
525  ekin = 3124.99986030197 | epot = 0 | etot = 3124.99986030197
526  ekin = 3124.99986030197 | epot = 0 | etot = 3124.99986030197
527  ekin = 3124.99986030197 | epot = 0 | etot = 3124.99986030197
528  ekin = 3124.99986030197 | epot = 0 | etot = 3124.99986030197
529  ekin = 3124.99986030197 | epot = 0 | etot = 3124.99986030197
530  ekin = 3124.99986030197 | epot = 0 | etot = 3124.99986030197
531  ekin = 3124.99986030197 | epot = 0 | etot = 3124.99986030197
532  ekin = 3124.99986030197 | epot = 0 | etot = 3124.99986030197
533  ekin = 3124.99986030197 | epot = 0 | etot = 3124.99986030197
534  ekin = 3124.99986030197 | epot = 0 | etot = 3124.99986030197
535  ekin = 3124.99986030197 | epot = 0 | etot = 3124.99986030197
536  ekin = 3124.99986030197 | epot = 0 | etot = 3124.99986030197
537  ekin = 3124.99986030197 | epot = 0 | etot = 3124.99986030197
538  ekin = 3124.99986030197 | epot = 0 | etot = 3124.99986030197
539  ekin = 3124.99986030197 | epot = 0 | etot = 3124.99986030197
540  ekin = 3124.99986030197 | epot = 0 | etot = 3124.99986030197
541  ekin = 3124.99986030197 | epot = 0 | etot = 3124.99986030197
542  ekin = 3124.99986030197 | epot = 0 | etot = 3124.99986030197
543  ekin = 3124.99986030197 | epot = 0 | etot = 3124.99986030197
544  ekin = 3124.99986030197 | epot = 0 | etot = 3124.99986030197
545  ekin = 3124.99986030197 | epot = 0 | etot = 3124.99986030197
546  ekin = 3124.99986030197 | epot = 0 | etot = 3124.99986030197
547  ekin = 3124.99986030197 | epot = 0 | etot = 3124.99986030197
548  ekin = 3124.99986030197 | epot = 0 | etot = 3124.99986030197
549  ekin = 3124.99986030197 | epot = 0 | etot = 3124.99986030197
550  ekin = 3124.99986030197 | epot = 0 | etot = 3124.99986030197
551  ekin = 3124.99986030197 | epot = 0 | etot = 3124.99986030197
552  ekin = 3124.99986030197 | epot = 0 | etot = 3124.99986030197
553  ekin = 3124.99986030197 | epot = 0 | etot = 3124.99986030197
554  ekin = 3124.99986030197 | epot = 0 | etot = 3124.99986030197
555  ekin = 3124.99986030197 | epot = 0 | etot = 3124.99986030197
556  ekin = 3124.99986030197 | epot = 0 | etot = 3124.99986030197
557  ekin = 3124.99986030197 | epot = 0 | etot = 3124.99986030197
558  ekin = 3124.99986030197 | epot = 0 | etot = 3124.99986030197
559  ekin = 3124.99986030197 | epot = 0 | etot = 3124.99986030197
560  ekin = 3124.99986030197 | epot = 0 | etot = 3124.99986030197
561  ekin = 3124.99986030197 | epot = 0 | etot = 3124.99986030197
562  ekin = 3124.99986030197 | epot = 0 | etot = 3124.99986030197
563  ekin = 3124.99986030197 | epot = 0 | etot = 3124.99986030197
564  ekin = 3124.99986030197 | epot = 0 | etot = 3124.99986030197
565  ekin = 3124.99986030197 | epot = 0 | etot = 3124.99986030197
566  ekin = 3124.99986030197 | epot = 0 | etot = 3124.99986030197
567  ekin = 3124.99986030197 | epot = 0 | etot = 3124.99986030197
568  ekin = 3124.99986030197 | epot = 0 | etot = 3124.99986030197
569  ekin = 3124.99986030197 | epot = 0 | etot = 3124.99986030197
570  ekin = 3124.99986030197 | epot = 0 | etot = 3124.99986030197
571  ekin = 3124.99986030197 | epot = 0 | etot = 3124.99986030197
572  ekin = 3124.99986030197 | epot = 0 | etot = 3124.99986030197
573  ekin = 3124.99986030197 | epot = 0 | etot = 3124.99986030197
574  ekin = 3124.99986030197 | epot = 0 | etot = 3124.99986030197
575  ekin = 3124.99986030197 | epot = 0 | etot = 3124.99986030197
576  ekin = 3124.99986030197 | epot = 0 | etot = 3124.99986030197
577  ekin = 3124.99986030197 | epot = 0 | etot = 3124.99986030197
578  ekin = 3124.99986030197 | epot = 0 | etot = 3124.99986030197
579  ekin = 3124.99986030197 | epot = 0 | etot = 3124.99986030197
580  ekin = 3124.99986030197 | epot = 0 | etot = 3124.99986030197
581  ekin = 3124.99986030197 | epot = 0 | etot = 3124.99986030197
582  ekin = 3124.99986030197 | epot = 0 | etot = 3124.99986030197
583  ekin = 3124.99986030197 | epot = 0 | etot = 3124.99986030197
584  ekin = 3124.99986030197 | epot = 0 | etot = 3124.99986030197
585  ekin = 3124.99986030197 | epot = 0 | etot = 3124.99986030197
586  ekin = 3124.99986030197 | epot = 0 | etot = 3124.99986030197
587  ekin = 3124.99986030197 | epot = 0 | etot = 3124.99986030197
588  ekin = 3124.99986030197 | epot = 0 | etot = 3124.99986030197
589  ekin = 3124.99986030197 | epot = 0 | etot = 3124.99986030197
590  ekin = 3124.99986030197 | epot = 0 | etot = 3124.99986030197
591  ekin = 3124.99986030197 | epot = 0 | etot = 3124.99986030197
592  ekin = 3124.99986030197 | epot = 0 | etot = 3124.99986030197
593  ekin = 3124.99986030197 | epot = 0 | etot = 3124.99986030197
594  ekin = 3124.99986030197 | epot = 0 | etot = 3124.99986030197
595  ekin = 3124.99986030197 | epot = 0 | etot = 3124.99986030197
596  ekin = 3124.99986030197 | epot = 0 | etot = 3124.99986030197
597  ekin = 3124.99986030197 | epot = 0 | etot = 3124.99986030197
598  ekin = 3124.99986030197 | epot = 0 | etot = 3124.99986030197
599  ekin = 3124.99986030197 | epot = 0 | etot = 3124.99986030197
600  ekin = 3124.99986030197 | epot = 0 | etot = 3124.99986030197
601  ekin = 3124.99986030197 | epot = 0 | etot = 3124.99986030197
602  ekin = 3124.99986030197 | epot = 0 | etot = 3124.99986030197
603  ekin = 3124.99986030197 | epot = 0 | etot = 3124.99986030197
604  ekin = 3124.99986030197 | epot = 0 | etot = 3124.99986030197
605  ekin = 3124.99986030197 | epot = 0 | etot = 3124.99986030197
606  ekin = 3124.99986030197 | epot = 0 | etot = 3124.99986030197
607  ekin = 3124.99986030197 | epot = 0 | etot = 3124.99986030197
608  ekin = 3124.99986030197 | epot = 0 | etot = 3124.99986030197
609  ekin = 3124.99986030197 | epot = 0 | etot = 3124.99986030197
610  ekin = 3124.99986030197 | epot = 0 | etot = 3124.99986030197
611  ekin = 3124.99986030197 | epot = 0 | etot = 3124.99986030197
612  ekin = 3124.99986030197 | epot = 0 | etot = 3124.99986030197
613  ekin = 3124.99986030197 | epot = 0 | etot = 3124.99986030197
614  ekin = 3124.99986030197 | epot = 0 | etot = 3124.99986030197
615  ekin = 3124.99986030197 | epot = 0 | etot = 3124.99986030197
616  ekin = 3124.99986030197 | epot = 0 | etot = 3124.99986030197
617  ekin = 3124.99986030197 | epot = 0 | etot = 3124.99986030197
618  ekin = 3124.99986030197 | epot = 0 | etot = 3124.99986030197
619  ekin = 3124.99986030197 | epot = 0 | etot = 3124.99986030197
620  ekin = 3124.99986030197 | epot = 0 | etot = 3124.99986030197
621  ekin = 3124.99986030197 | epot = 0 | etot = 3124.99986030197
622  ekin = 3124.99986030197 | epot = 0 | etot = 3124.99986030197
623  ekin = 3124.99986030197 | epot = 0 | etot = 3124.99986030197
624  ekin = 3124.99986030197 | epot = 0 | etot = 3124.99986030197
625  ekin = 3124.99986030197 | epot = 0 | etot = 3124.99986030197
626  ekin = 3124.99986030197 | epot = 0 | etot = 3124.99986030197
627  ekin = 3124.99986030197 | epot = 0 | etot = 3124.99986030197
628  ekin = 3124.99986030197 | epot = 0 | etot = 3124.99986030197
629  ekin = 3124.99986030197 | epot = 0 | etot = 3124.99986030197
630  ekin = 3124.99986030197 | epot = 0 | etot = 3124.99986030197
631  ekin = 3124.99986030197 | epot = 0 | etot = 3124.99986030197
632  ekin = 3124.99986030197 | epot = 0 | etot = 3124.99986030197
633  ekin = 3124.99986030197 | epot = 0 | etot = 3124.99986030197
634  ekin = 3124.99986030197 | epot = 0 | etot = 3124.99986030197
635  ekin = 3124.99986030197 | epot = 0 | etot = 3124.99986030197
636  ekin = 3124.99986030197 | epot = 0 | etot = 3124.99986030197
637  ekin = 3124.99986030197 | epot = 0 | etot = 3124.99986030197
638  ekin = 3124.99986030197 | epot = 0 | etot = 3124.99986030197
639  ekin = 3124.99986030197 | epot = 0 | etot = 3124.99986030197
640  ekin = 3124.99986030197 | epot = 0 | etot = 3124.99986030197
641  ekin = 3124.99986030197 | epot = 0 | etot = 3124.99986030197
642  ekin = 3124.99986030197 | epot = 0 | etot = 3124.99986030197
643  ekin = 3124.99986030197 | epot = 0 | etot = 3124.99986030197
644  ekin = 3124.99986030197 | epot = 0 | etot = 3124.99986030197
645  ekin = 3124.99986030197 | epot = 0 | etot = 3124.99986030197
646  ekin = 3124.99986030197 | epot = 0 | etot = 3124.99986030197
647  ekin = 3124.99986030197 | epot = 0 | etot = 3124.99986030197
648  ekin = 3124.99986030197 | epot = 0 | etot = 3124.99986030197
649  ekin = 3124.99986030197 | epot = 0 | etot = 3124.99986030197
650  ekin = 3124.99986030197 | epot = 0 | etot = 3124.99986030197
651  ekin = 3124.99986030197 | epot = 0 | etot = 3124.99986030197
652  ekin = 3124.99986030197 | epot = 0 | etot = 3124.99986030197
653  ekin = 3124.99986030197 | epot = 0 | etot = 3124.99986030197
654  ekin = 3124.99986030197 | epot = 0 | etot = 3124.99986030197
655  ekin = 3124.99986030197 | epot = 0 | etot = 3124.99986030197
656  ekin = 3124.99986030197 | epot = 0 | etot = 3124.99986030197
657  ekin = 3124.99986030197 | epot = 0 | etot = 3124.99986030197
658  ekin = 3124.99986030197 | epot = 0 | etot = 3124.99986030197
659  ekin = 3124.99986030197 | epot = 0 | etot = 3124.99986030197
660  ekin = 3124.99986030197 | epot = 0 | etot = 3124.99986030197
661  ekin = 3124.99986030197 | epot = 0 | etot = 3124.99986030197
662  ekin = 3124.99986030197 | epot = 0 | etot = 3124.99986030197
663  ekin = 3124.99986030197 | epot = 0 | etot = 3124.99986030197
664  ekin = 3124.99986030197 | epot = 0 | etot = 3124.99986030197
665  ekin = 3124.99986030197 | epot = 0 | etot = 3124.99986030197
666  ekin = 3124.99986030197 | epot = 0 | etot = 3124.99986030197
667  ekin = 3124.99986030197 | epot = 0 | etot = 3124.99986030197
668  ekin = 3124.99986030197 | epot = 0 | etot = 3124.99986030197
669  ekin = 3124.99986030197 | epot = 0 | etot = 3124.99986030197
670  ekin = 3124.99986030197 | epot = 0 | etot = 3124.99986030197
671  ekin = 3124.99986030197 | epot = 0 | etot = 3124.99986030197
672  ekin = 3124.99986030197 | epot = 0 | etot = 3124.99986030197
673  ekin = 3124.99986030197 | epot = 0 | etot = 3124.99986030197
674  ekin = 3124.99986030197 | epot = 0 | etot = 3124.99986030197
675  ekin = 3124.99986030197 | epot = 0 | etot = 3124.99986030197
676  ekin = 3124.99986030197 | epot = 0 | etot = 3124.99986030197
677  ekin = 3124.99986030197 | epot = 0 | etot = 3124.99986030197
678  ekin = 3124.99986030197 | epot = 0 | etot = 3124.99986030197
679  ekin = 3124.99986030197 | epot = 0 | etot = 3124.99986030197
680  ekin = 3124.99986030197 | epot = 0 | etot = 3124.99986030197
681  ekin = 3124.99986030197 | epot = 0 | etot = 3124.99986030197
682  ekin = 3124.99986030197 | epot = 0 | etot = 3124.99986030197
683  ekin = 3124.99986030197 | epot = 0 | etot = 3124.99986030197
684  ekin = 3124.99986030197 | epot = 0 | etot = 3124.99986030197
685  ekin = 3124.99986030197 | epot = 0 | etot = 3124.99986030197
686  ekin = 3124.99986030197 | epot = 0 | etot = 3124.99986030197
687  ekin = 3124.99986030197 | epot = 0 | etot = 3124.99986030197
688  ekin = 3124.99986030197 | epot = 0 | etot = 3124.99986030197
689  ekin = 3124.99986030197 | epot = 0 | etot = 3124.99986030197
690  ekin = 3124.99986030197 | epot = 0 | etot = 3124.99986030197
691  ekin = 3124.99986030197 | epot = 0 | etot = 3124.99986030197
692  ekin = 3124.99986030197 | epot = 0 | etot = 3124.99986030197
693  ekin = 3124.99986030197 | epot = 0 | etot = 3124.99986030197
694  ekin = 3124.99986030197 | epot = 0 | etot = 3124.99986030197
695  ekin = 3124.99986030197 | epot = 0 | etot = 3124.99986030197
696  ekin = 3124.99986030197 | epot = 0 | etot = 3124.99986030197
697  ekin = 3124.99986030197 | epot = 0 | etot = 3124.99986030197
698  ekin = 3124.99986030197 | epot = 0 | etot = 3124.99986030197
699  ekin = 3124.99986030197 | epot = 0 | etot = 3124.99986030197
700  ekin = 3124.99986030197 | epot = 0 | etot = 3124.99986030197
701  ekin = 3124.99986030197 | epot = 0 | etot = 3124.99986030197
702  ekin = 3124.99986030197 | epot = 0 | etot = 3124.99986030197
703  ekin = 3124.99986030197 | epot = 0 | etot = 3124.99986030197
704  ekin = 3124.99986030197 | epot = 0 | etot = 3124.99986030197
705  ekin = 3124.99986030197 | epot = 0 | etot = 3124.99986030197
706  ekin = 3124.99986030197 | epot = 0 | etot = 3124.99986030197
707  ekin = 3124.99986030197 | epot = 0 | etot = 3124.99986030197
708  ekin = 3124.99986030197 | epot = 0 | etot = 3124.99986030197
709  ekin = 3124.99986030197 | epot = 0 | etot = 3124.99986030197
710  ekin = 3124.99986030197 | epot = 0 | etot = 3124.99986030197
711  ekin = 3124.99986030197 | epot = 0 | etot = 3124.99986030197
712  ekin = 3124.99986030197 | epot = 0 | etot = 3124.99986030197
713  ekin = 3124.99986030197 | epot = 0 | etot = 3124.99986030197
714  ekin = 3124.99986030197 | epot = 0 | etot = 3124.99986030197
715  ekin = 3124.99986030197 | epot = 0 | etot = 3124.99986030197
716  ekin = 3124.99986030197 | epot = 0 | etot = 3124.99986030197
717  ekin = 3124.99986030197 | epot = 0 | etot = 3124.99986030197
718  ekin = 3124.99986030197 | epot = 0 | etot = 3124.99986030197
719  ekin = 3124.99986030197 | epot = 0 | etot = 3124.99986030197
720  ekin = 3124.99986030197 | epot = 0 | etot = 3124.99986030197
721  ekin = 3124.99986030197 | epot = 0 | etot = 3124.99986030197
722  ekin = 3124.99986030197 | epot = 0 | etot = 3124.99986030197
723  ekin = 3124.99986030197 | epot = 0 | etot = 3124.99986030197
724  ekin = 3124.99986030197 | epot = 0 | etot = 3124.99986030197
725  ekin = 3124.99986030197 | epot = 0 | etot = 3124.99986030197
726  ekin = 3124.99986030197 | epot = 0 | etot = 3124.99986030197
727  ekin = 3124.99986030197 | epot = 0 | etot = 3124.99986030197
728  ekin = 3124.99986030197 | epot = 0 | etot = 3124.99986030197
729  ekin = 3124.99986030197 | epot = 0 | etot = 3124.99986030197
730  ekin = 3124.99986030197 | epot = 0 | etot = 3124.99986030197
731  ekin = 3124.99986030197 | epot = 0 | etot = 3124.99986030197
732  ekin = 3124.99986030197 | epot = 0 | etot = 3124.99986030197
733  ekin = 3124.99986030197 | epot = 0 | etot = 3124.99986030197
734  ekin = 3124.99986030197 | epot = 0 | etot = 3124.99986030197
735  ekin = 3124.99986030197 | epot = 0 | etot = 3124.99986030197
736  ekin = 3124.99986030197 | epot = 0 | etot = 3124.99986030197
737  ekin = 3124.99986030197 | epot = 0 | etot = 3124.99986030197
738  ekin = 3124.99986030197 | epot = 0 | etot = 3124.99986030197
739  ekin = 3124.99986030197 | epot = 0 | etot = 3124.99986030197
740  ekin = 3124.99986030197 | epot = 0 | etot = 3124.99986030197
741  ekin = 3124.99986030197 | epot = 0 | etot = 3124.99986030197
742  ekin = 3124.99986030197 | epot = 0 | etot = 3124.99986030197
743  ekin = 3124.99986030197 | epot = 0 | etot = 3124.99986030197
744  ekin = 3124.99986030197 | epot = 0 | etot = 3124.99986030197
745  ekin = 3124.99986030197 | epot = 0 | etot = 3124.99986030197
746  ekin = 3124.99986030197 | epot = 0 | etot = 3124.99986030197
747  ekin = 3124.99986030197 | epot = 0 | etot = 3124.99986030197
748  ekin = 3124.99986030197 | epot = 0 | etot = 3124.99986030197
749  ekin = 3124.99986030197 | epot = 0 | etot = 3124.99986030197
750  ekin = 3124.99986030197 | epot = 0 | etot = 3124.99986030197
751  ekin = 3124.99986030197 | epot = 0 | etot = 3124.99986030197
752  ekin = 3124.99986030197 | epot = 0 | etot = 3124.99986030197
753  ekin = 3124.99986030197 | epot = 0 | etot = 3124.99986030197
754  ekin = 3124.99986030197 | epot = 0 | etot = 3124.99986030197
755  ekin = 3124.99986030197 | epot = 0 | etot = 3124.99986030197
756  ekin = 3124.99986030197 | epot = 0 | etot = 3124.99986030197
757  ekin = 3124.99986030197 | epot = 0 | etot = 3124.99986030197
758  ekin = 3124.99986030197 | epot = 0 | etot = 3124.99986030197
759  ekin = 3124.99986030197 | epot = 0 | etot = 3124.99986030197
760  ekin = 3124.99986030197 | epot = 0 | etot = 3124.99986030197
761  ekin = 3124.99986030197 | epot = 0 | etot = 3124.99986030197
762  ekin = 3124.99986030197 | epot = 0 | etot = 3124.99986030197
763  ekin = 3124.99986030197 | epot = 0 | etot = 3124.99986030197
764  ekin = 3124.99986030197 | epot = 0 | etot = 3124.99986030197
765  ekin = 3124.99986030197 | epot = 0 | etot = 3124.99986030197
766  ekin = 3124.99986030197 | epot = 0 | etot = 3124.99986030197
767  ekin = 3124.99986030197 | epot = 0 | etot = 3124.99986030197
768  ekin = 3124.99986030197 | epot = 0 | etot = 3124.99986030197
769  ekin = 3124.99986030197 | epot = 0 | etot = 3124.99986030197
770  ekin = 3124.99986030197 | epot = 0 | etot = 3124.99986030197
771  ekin = 3124.99986030197 | epot = 0 | etot = 3124.99986030197
772  ekin = 3124.99986030197 | epot = 0 | etot = 3124.99986030197
773  ekin = 3124.99986030197 | epot = 0 | etot = 3124.99986030197
774  ekin = 3124.99986030197 | epot = 0 | etot = 3124.99986030197
775  ekin = 3124.99986030197 | epot = 0 | etot = 3124.99986030197
776  ekin = 3124.99986030197 | epot = 0 | etot = 3124.99986030197
777  ekin = 3124.99986030197 | epot = 0 | etot = 3124.99986030197
778  ekin = 3124.99986030197 | epot = 0 | etot = 3124.99986030197
779  ekin = 3124.99986030197 | epot = 0 | etot = 3124.99986030197
780  ekin = 3124.99986030197 | epot = 0 | etot = 3124.99986030197
781  ekin = 3124.99986030197 | epot = 0 | etot = 3124.99986030197
782  ekin = 3124.99986030197 | epot = 0 | etot = 3124.99986030197
783  ekin = 3124.99986030197 | epot = 0 | etot = 3124.99986030197
784  ekin = 3124.99986030197 | epot = 0 | etot = 3124.99986030197
785  ekin = 3124.99986030197 | epot = 0 | etot = 3124.99986030197
786  ekin = 3124.99986030197 | epot = 0 | etot = 3124.99986030197
787  ekin = 3124.99986030197 | epot = 0 | etot = 3124.99986030197
788  ekin = 3124.99986030197 | epot = 0 | etot = 3124.99986030197
789  ekin = 3124.99986030197 | epot = 0 | etot = 3124.99986030197
790  ekin = 3124.99986030197 | epot = 0 | etot = 3124.99986030197
791  ekin = 3124.99986030197 | epot = 0 | etot = 3124.99986030197
792  ekin = 3124.99986030197 | epot = 0 | etot = 3124.99986030197
793  ekin = 3124.99986030197 | epot = 0 | etot = 3124.99986030197
794  ekin = 3124.99986030197 | epot = 0 | etot = 3124.99986030197
795  ekin = 3124.99986030197 | epot = 0 | etot = 3124.99986030197
796  ekin = 3124.99986030197 | epot = 0 | etot = 3124.99986030197
797  ekin = 3124.99986030197 | epot = 0 | etot = 3124.99986030197
798  ekin = 3124.99986030197 | epot = 0 | etot = 3124.99986030197
799  ekin = 3124.99986030197 | epot = 0 | etot = 3124.99986030197
800  ekin = 3124.99986030197 | epot = 0 | etot = 3124.99986030197
801  ekin = 3124.99986030197 | epot = 0 | etot = 3124.99986030197
802  ekin = 3124.99986030197 | epot = 0 | etot = 3124.99986030197
803  ekin = 3124.99986030197 | epot = 0 | etot = 3124.99986030197
804  ekin = 3124.99986030197 | epot = 0 | etot = 3124.99986030197
805  ekin = 3124.99986030197 | epot = 0 | etot = 3124.99986030197
806  ekin = 3124.99986030197 | epot = 0 | etot = 3124.99986030197
807  ekin = 3124.99986030197 | epot = 0 | etot = 3124.99986030197
808  ekin = 3124.99986030197 | epot = 0 | etot = 3124.99986030197
809  ekin = 3124.99986030197 | epot = 0 | etot = 3124.99986030197
810  ekin = 3124.99986030197 | epot = 0 | etot = 3124.99986030197
811  ekin = 3124.99986030197 | epot = 0 | etot = 3124.99986030197
812  ekin = 3124.99986030197 | epot = 0 | etot = 3124.99986030197
813  ekin = 3124.99986030197 | epot = 0 | etot = 3124.99986030197
814  ekin = 3124.99986030197 | epot = 0 | etot = 3124.99986030197
815  ekin = 3124.99986030197 | epot = 0 | etot = 3124.99986030197
816  ekin = 3124.99986030197 | epot = 0 | etot = 3124.99986030197
817  ekin = 3124.99986030197 | epot = 0 | etot = 3124.99986030197
818  ekin = 3124.99986030197 | epot = 0 | etot = 3124.99986030197
819  ekin = 3124.99986030197 | epot = 0 | etot = 3124.99986030197
820  ekin = 3124.99986030197 | epot = 0 | etot = 3124.99986030197
821  ekin = 3124.99986030197 | epot = 0 | etot = 3124.99986030197
822  ekin = 3124.99986030197 | epot = 0 | etot = 3124.99986030197
823  ekin = 3124.99986030197 | epot = 0 | etot = 3124.99986030197
824  ekin = 3124.99986030197 | epot = 0 | etot = 3124.99986030197
825  ekin = 3124.99986030197 | epot = 0 | etot = 3124.99986030197
826  ekin = 3124.99986030197 | epot = 0 | etot = 3124.99986030197
827  ekin = 3124.99986030197 | epot = 0 | etot = 3124.99986030197
828  ekin = 3124.99986030197 | epot = 0 | etot = 3124.99986030197
829  ekin = 3124.99986030197 | epot = 0 | etot = 3124.99986030197
830  ekin = 3124.99986030197 | epot = 0 | etot = 3124.99986030197
831  ekin = 3124.99986030197 | epot = 0 | etot = 3124.99986030197
832  ekin = 3124.99986030197 | epot = 0 | etot = 3124.99986030197
833  ekin = 3124.99986030197 | epot = 0 | etot = 3124.99986030197
834  ekin = 3124.99986030197 | epot = 0 | etot = 3124.99986030197
835  ekin = 3124.99986030197 | epot = 0 | etot = 3124.99986030197
836  ekin = 3124.99986030197 | epot = 0 | etot = 3124.99986030197
837  ekin = 3124.99986030197 | epot = 0 | etot = 3124.99986030197
838  ekin = 3124.99986030197 | epot = 0 | etot = 3124.99986030197
839  ekin = 3124.99986030197 | epot = 0 | etot = 3124.99986030197
840  ekin = 3124.99986030197 | epot = 0 | etot = 3124.99986030197
841  ekin = 3124.99986030197 | epot = 0 | etot = 3124.99986030197
842  ekin = 3124.99986030197 | epot = 0 | etot = 3124.99986030197
843  ekin = 3124.99986030197 | epot = 0 | etot = 3124.99986030197
844  ekin = 3124.99986030197 | epot = 0 | etot = 3124.99986030197
845  ekin = 3124.99986030197 | epot = 0 | etot = 3124.99986030197
846  ekin = 3124.99986030197 | epot = 0 | etot = 3124.99986030197
847  ekin = 3124.99986030197 | epot = 0 | etot = 3124.99986030197
848  ekin = 3124.99986030197 | epot = 0 | etot = 3124.99986030197
849  ekin = 3124.99986030197 | epot = 0 | etot = 3124.99986030197
850  ekin = 3124.99986030197 | epot = 0 | etot = 3124.99986030197
851  ekin = 3124.99986030197 | epot = 0 | etot = 3124.99986030197
852  ekin = 3124.99986030197 | epot = 0 | etot = 3124.99986030197
853  ekin = 3124.99986030197 | epot = 0 | etot = 3124.99986030197
854  ekin = 3124.99986030197 | epot = 0 | etot = 3124.99986030197
855  ekin = 3124.99986030197 | epot = 0 | etot = 3124.99986030197
856  ekin = 3124.99986030197 | epot = 0 | etot = 3124.99986030197
857  ekin = 3124.99986030197 | epot = 0 | etot = 3124.99986030197
858  ekin = 3124.99986030197 | epot = 0 | etot = 3124.99986030197
859  ekin = 3124.99986030197 | epot = 0 | etot = 3124.99986030197
860  ekin = 3124.99986030197 | epot = 0 | etot = 3124.99986030197
861  ekin = 3124.99986030197 | epot = 0 | etot = 3124.99986030197
862  ekin = 3124.99986030197 | epot = 0 | etot = 3124.99986030197
863  ekin = 3124.99986030197 | epot = 0 | etot = 3124.99986030197
864  ekin = 3124.99986030197 | epot = 0 | etot = 3124.99986030197
865  ekin = 3124.99986030197 | epot = 0 | etot = 3124.99986030197
866  ekin = 3124.99986030197 | epot = 0 | etot = 3124.99986030197
867  ekin = 3124.99986030197 | epot = 0 | etot = 3124.99986030197
868  ekin = 3124.99986030197 | epot = 0 | etot = 3124.99986030197
869  ekin = 3124.99986030197 | epot = 0 | etot = 3124.99986030197
870  ekin = 3124.99986030197 | epot = 0 | etot = 3124.99986030197
871  ekin = 3124.99986030197 | epot = 0 | etot = 3124.99986030197
872  ekin = 3124.99986030197 | epot = 0 | etot = 3124.99986030197
873  ekin = 3124.99986030197 | epot = 0 | etot = 3124.99986030197
874  ekin = 3124.99986030197 | epot = 0 | etot = 3124.99986030197
875  ekin = 3124.99986030197 | epot = 0 | etot = 3124.99986030197
876  ekin = 3124.99986030197 | epot = 0 | etot = 3124.99986030197
877  ekin = 3124.99986030197 | epot = 0 | etot = 3124.99986030197
878  ekin = 3124.99986030197 | epot = 0 | etot = 3124.99986030197
879  ekin = 3124.99986030197 | epot = 0 | etot = 3124.99986030197
880  ekin = 3124.99986030197 | epot = 0 | etot = 3124.99986030197
881  ekin = 3124.99986030197 | epot = 0 | etot = 3124.99986030197
882  ekin = 3124.99986030197 | epot = 0 | etot = 3124.99986030197
883  ekin = 3124.99986030197 | epot = 0 | etot = 3124.99986030197
884  ekin = 3124.99986030197 | epot = 0 | etot = 3124.99986030197
885  ekin = 3124.99986030197 | epot = 0 | etot = 3124.99986030197
886  ekin = 3124.99986030197 | epot = 0 | etot = 3124.99986030197
887  ekin = 3124.99986030197 | epot = 0 | etot = 3124.99986030197
888  ekin = 3124.99986030197 | epot = 0 | etot = 3124.99986030197
889  ekin = 3124.99986030197 | epot = 0 | etot = 3124.99986030197
890  ekin = 3124.99986030197 | epot = 0 | etot = 3124.99986030197
891  ekin = 3124.99986030197 | epot = 0 | etot = 3124.99986030197
892  ekin = 3124.99986030197 | epot = 0 | etot = 3124.99986030197
893  ekin = 3124.99986030197 | epot = 0 | etot = 3124.99986030197
894  ekin = 3124.99986030197 | epot = 0 | etot = 3124.99986030197
895  ekin = 3124.99986030197 | epot = 0 | etot = 3124.99986030197
896  ekin = 3124.99986030197 | epot = 0 | etot = 3124.99986030197
897  ekin = 3124.99986030197 | epot = 0 | etot = 3124.99986030197
898  ekin = 3124.99986030197 | epot = 0 | etot = 3124.99986030197
899  ekin = 3124.99986030197 | epot = 0 | etot = 3124.99986030197
900  ekin = 3124.99986030197 | epot = 0 | etot = 3124.99986030197
901  ekin = 3124.99986030197 | epot = 0 | etot = 3124.99986030197
902  ekin = 3124.99986030197 | epot = 0 | etot = 3124.99986030197
903  ekin = 3124.99986030197 | epot = 0 | etot = 3124.99986030197
904  ekin = 3124.99986030197 | epot = 0 | etot = 3124.99986030197
905  ekin = 3124.99986030197 | epot = 0 | etot = 3124.99986030197
906  ekin = 3124.99986030197 | epot = 0 | etot = 3124.99986030197
907  ekin = 3124.99986030197 | epot = 0 | etot = 3124.99986030197
908  ekin = 3124.99986030197 | epot = 0 | etot = 3124.99986030197
909  ekin = 3124.99986030197 | epot = 0 | etot = 3124.99986030197
910  ekin = 3124.99986030197 | epot = 0 | etot = 3124.99986030197
911  ekin = 3124.99986030197 | epot = 0 | etot = 3124.99986030197
912  ekin = 3124.99986030197 | epot = 0 | etot = 3124.99986030197
913  ekin = 3124.99986030197 | epot = 0 | etot = 3124.99986030197
914  ekin = 3124.99986030197 | epot = 0 | etot = 3124.99986030197
915  ekin = 3124.99986030197 | epot = 0 | etot = 3124.99986030197
916  ekin = 3124.99986030197 | epot = 0 | etot = 3124.99986030197
917  ekin = 3124.99986030197 | epot = 0 | etot = 3124.99986030197
918  ekin = 3124.99986030197 | epot = 0 | etot = 3124.99986030197
919  ekin = 3124.99986030197 | epot = 0 | etot = 3124.99986030197
920  ekin = 3124.99986030197 | epot = 0 | etot = 3124.99986030197
921  ekin = 3124.99986030197 | epot = 0 | etot = 3124.99986030197
922  ekin = 3124.99986030197 | epot = 0 | etot = 3124.99986030197
923  ekin = 3124.99986030197 | epot = 0 | etot = 3124.99986030197
924  ekin = 3124.99986030197 | epot = 0 | etot = 3124.99986030197
925  ekin = 3124.99986030197 | epot = 0 | etot = 3124.99986030197
926  ekin = 3124.99986030197 | epot = 0 | etot = 3124.99986030197
927  ekin = 3124.99986030197 | epot = 0 | etot = 3124.99986030197
928  ekin = 3124.99986030197 | epot = 0 | etot = 3124.99986030197
929  ekin = 3124.99986030197 | epot = 0 | etot = 3124.99986030197
930  ekin = 3124.99986030197 | epot = 0 | etot = 3124.99986030197
931  ekin = 3124.99986030197 | epot = 0 | etot = 3124.99986030197
932  ekin = 3124.99986030197 | epot = 0 | etot = 3124.99986030197
933  ekin = 3124.99986030197 | epot = 0 | etot = 3124.99986030197
934  ekin = 3124.99986030197 | epot = 0 | etot = 3124.99986030197
935  ekin = 3124.99986030197 | epot = 0 | etot = 3124.99986030197
936  ekin = 3124.99986030197 | epot = 0 | etot = 3124.99986030197
937  ekin = 3124.99986030197 | epot = 0 | etot = 3124.99986030197
938  ekin = 3124.99986030197 | epot = 0 | etot = 3124.99986030197
939  ekin = 3124.99986030197 | epot = 0 | etot = 3124.99986030197
940  ekin = 3124.99986030197 | epot = 0 | etot = 3124.99986030197
941  ekin = 3124.99986030197 | epot = 0 | etot = 3124.99986030197
942  ekin = 3124.99986030197 | epot = 0 | etot = 3124.99986030197
943  ekin = 3124.99986030197 | epot = 0 | etot = 3124.99986030197
944  ekin = 3124.99986030197 | epot = 0 | etot = 3124.99986030197
945  ekin = 3124.99986030197 | epot = 0 | etot = 3124.99986030197
946  ekin = 3124.99986030197 | epot = 0 | etot = 3124.99986030197
947  ekin = 3124.99986030197 | epot = 0 | etot = 3124.99986030197
948  ekin = 3124.99986030197 | epot = 0 | etot = 3124.99986030197
949  ekin = 3124.99986030197 | epot = 0 | etot = 3124.99986030197
950  ekin = 3124.99986030197 | epot = 0 | etot = 3124.99986030197
951  ekin = 3124.99986030197 | epot = 0 | etot = 3124.99986030197
952  ekin = 3124.99986030197 | epot = 0 | etot = 3124.99986030197
953  ekin = 3124.99986030197 | epot = 0 | etot = 3124.99986030197
954  ekin = 3124.99986030197 | epot = 0 | etot = 3124.99986030197
955  ekin = 3124.99986030197 | epot = 0 | etot = 3124.99986030197
956  ekin = 3124.99986030197 | epot = 0 | etot = 3124.99986030197
957  ekin = 3124.99986030197 | epot = 0 | etot = 3124.99986030197
958  ekin = 3124.99986030197 | epot = 0 | etot = 3124.99986030197
959  ekin = 3124.99986030197 | epot = 0 | etot = 3124.99986030197
960  ekin = 3124.99986030197 | epot = 0 | etot = 3124.99986030197
961  ekin = 3124.99986030197 | epot = 0 | etot = 3124.99986030197
962  ekin = 3124.99986030197 | epot = 0 | etot = 3124.99986030197
963  ekin = 3124.99986030197 | epot = 0 | etot = 3124.99986030197
964  ekin = 3124.99986030197 | epot = 0 | etot = 3124.99986030197
965  ekin = 3124.99986030197 | epot = 0 | etot = 3124.99986030197
966  ekin = 3124.99986030197 | epot = 0 | etot = 3124.99986030197
967  ekin = 3124.99986030197 | epot = 0 | etot = 3124.99986030197
968  ekin = 3124.99986030197 | epot = 0 | etot = 3124.99986030197
969  ekin = 3124.99986030197 | epot = 0 | etot = 3124.99986030197
970  ekin = 3124.99986030197 | epot = 0 | etot = 3124.99986030197
971  ekin = 3124.99986030197 | epot = 0 | etot = 3124.99986030197
972  ekin = 3124.99986030197 | epot = 0 | etot = 3124.99986030197
973  ekin = 3124.99986030197 | epot = 0 | etot = 3124.99986030197
974  ekin = 3124.99986030197 | epot = 0 | etot = 3124.99986030197
975  ekin = 3124.99986030197 | epot = 0 | etot = 3124.99986030197
976  ekin = 3124.99986030197 | epot = 0 | etot = 3124.99986030197
977  ekin = 3124.99986030197 | epot = 0 | etot = 3124.99986030197
978  ekin = 3124.99986030197 | epot = 0 | etot = 3124.99986030197
979  ekin = 3124.99986030197 | epot = 0 | etot = 3124.99986030197
980  ekin = 3124.99986030197 | epot = 0 | etot = 3124.99986030197
981  ekin = 3124.99986030197 | epot = 0 | etot = 3124.99986030197
982  ekin = 3124.99986030197 | epot = 0 | etot = 3124.99986030197
983  ekin = 3124.99986030197 | epot = 0 | etot = 3124.99986030197
984  ekin = 3124.99986030197 | epot = 0 | etot = 3124.99986030197
985  ekin = 3124.99986030197 | epot = 0 | etot = 3124.99986030197
986  ekin = 3124.99986030197 | epot = 0 | etot = 3124.99986030197
987  ekin = 3124.99986030197 | epot = 0 | etot = 3124.99986030197
988  ekin = 3124.99986030197 | epot = 0 | etot = 3124.99986030197
989  ekin = 3124.99986030197 | epot = 0 | etot = 3124.99986030197
990  ekin = 3124.99986030197 | epot = 0 | etot = 3124.99986030197
991  ekin = 3124.99986030197 | epot = 0 | etot = 3124.99986030197
992  ekin = 3124.99986030197 | epot = 0 | etot = 3124.99986030197
993  ekin = 3124.99986030197 | epot = 0 | etot = 3124.99986030197
994  ekin = 3124.99986030197 | epot = 0 | etot = 3124.99986030197
995  ekin = 3124.99986030197 | epot = 0 | etot = 3124.99986030197
996  ekin = 3124.99986030197 | epot = 0 | etot = 3124.99986030197
997  ekin = 3124.99986030197 | epot = 0 | etot = 3124.99986030197
998  ekin = 3124.99986030197 | epot = 0 | etot = 3124.99986030197
999  ekin = 3124.99986030197 | epot = 0 | etot = 3124.99986030197
1000  ekin = 3124.99986030197 | epot = 0 | etot = 3124.99986030197
1001  ekin = 3124.99986030197 | epot = 0 | etot = 3124.99986030197
1002  ekin = 3124.99986030197 | epot = 0 | etot = 3124.99986030197
1003  ekin = 3124.99986030197 | epot = 0 | etot = 3124.99986030197
1004  ekin = 3124.99986030197 | epot = 0 | etot = 3124.99986030197
1005  ekin = 3124.99986030197 | epot = 0 | etot = 3124.99986030197
1006  ekin = 3124.99986030197 | epot = 0 | etot = 3124.99986030197
1007  ekin = 3124.99986030197 | epot = 0 | etot = 3124.99986030197
1008  ekin = 3124.99986030197 | epot = 0 | etot = 3124.99986030197
1009  ekin = 3124.99986030197 | epot = 0 | etot = 3124.99986030197
1010  ekin = 3124.99986030197 | epot = 0 | etot = 3124.99986030197
1011  ekin = 3124.99986030197 | epot = 0 | etot = 3124.99986030197
1012  ekin = 3124.99986030197 | epot = 0 | etot = 3124.99986030197
1013  ekin = 3124.99986030197 | epot = 0 | etot = 3124.99986030197
1014  ekin = 3124.99986030197 | epot = 0 | etot = 3124.99986030197
1015  ekin = 3124.99986030197 | epot = 0 | etot = 3124.99986030197
1016  ekin = 3124.99986030197 | epot = 0 | etot = 3124.99986030197
1017  ekin = 3124.99986030197 | epot = 0 | etot = 3124.99986030197
1018  ekin = 3124.99986030197 | epot = 0 | etot = 3124.99986030197
1019  ekin = 3124.99986030197 | epot = 0 | etot = 3124.99986030197
1020  ekin = 3124.99986030197 | epot = 0 | etot = 3124.99986030197
1021  ekin = 3124.99986030197 | epot = 0 | etot = 3124.99986030197
1022  ekin = 3124.99986030197 | epot = 0 | etot = 3124.99986030197
1023  ekin = 3124.99986030197 | epot = 0 | etot = 3124.99986030197
1024  ekin = 3124.99986030197 | epot = 0 | etot = 3124.99986030197
1025  ekin = 3124.99986030197 | epot = 0 | etot = 3124.99986030197
1026  ekin = 3124.99986030197 | epot = 0 | etot = 3124.99986030197
1027  ekin = 3124.99986030197 | epot = 0 | etot = 3124.99986030197
1028  ekin = 3124.99986030197 | epot = 0 | etot = 3124.99986030197
1029  ekin = 3124.99986030197 | epot = 0 | etot = 3124.99986030197
1030  ekin = 3124.99986030197 | epot = 0 | etot = 3124.99986030197
1031  ekin = 3124.99986030197 | epot = 0 | etot = 3124.99986030197
1032  ekin = 3124.99986030197 | epot = 0 | etot = 3124.99986030197
1033  ekin = 3124.99986030197 | epot = 0 | etot = 3124.99986030197
1034  ekin = 3124.99986030197 | epot = 0 | etot = 3124.99986030197
1035  ekin = 3124.99986030197 | epot = 0 | etot = 3124.99986030197
1036  ekin = 3124.99986030197 | epot = 0 | etot = 3124.99986030197
1037  ekin = 3124.99986030197 | epot = 0 | etot = 3124.99986030197
1038  ekin = 3124.99986030197 | epot = 0 | etot = 3124.99986030197
1039  ekin = 3124.99986030197 | epot = 0 | etot = 3124.99986030197
1040  ekin = 3124.99986030197 | epot = 0 | etot = 3124.99986030197
1041  ekin = 3124.99986030197 | epot = 0 | etot = 3124.99986030197
1042  ekin = 3124.99986030197 | epot = 0 | etot = 3124.99986030197
1043  ekin = 3124.99986030197 | epot = 0 | etot = 3124.99986030197
1044  ekin = 3124.99986030197 | epot = 0 | etot = 3124.99986030197
1045  ekin = 3124.99986030197 | epot = 0 | etot = 3124.99986030197
1046  ekin = 3124.99986030197 | epot = 0 | etot = 3124.99986030197
1047  ekin = 3124.99986030197 | epot = 0 | etot = 3124.99986030197
1048  ekin = 3124.99986030197 | epot = 0 | etot = 3124.99986030197
1049  ekin = 3124.99986030197 | epot = 0 | etot = 3124.99986030197
1050  ekin = 3124.99986030197 | epot = 0 | etot = 3124.99986030197
1051  ekin = 3124.99986030197 | epot = 0 | etot = 3124.99986030197
1052  ekin = 3124.99986030197 | epot = 0 | etot = 3124.99986030197
1053  ekin = 3124.99986030197 | epot = 0 | etot = 3124.99986030197
1054  ekin = 3124.99986030197 | epot = 0 | etot = 3124.99986030197
1055  ekin = 3124.99986030197 | epot = 0 | etot = 3124.99986030197
1056  ekin = 3124.99986030197 | epot = 0 | etot = 3124.99986030197
1057  ekin = 3124.99986030197 | epot = 0 | etot = 3124.99986030197
1058  ekin = 3124.99986030197 | epot = 0 | etot = 3124.99986030197
1059  ekin = 3124.99986030197 | epot = 0 | etot = 3124.99986030197
1060  ekin = 3124.99986030197 | epot = 0 | etot = 3124.99986030197
1061  ekin = 3124.99986030197 | epot = 0 | etot = 3124.99986030197
1062  ekin = 3124.99986030197 | epot = 0 | etot = 3124.99986030197
1063  ekin = 3124.99986030197 | epot = 0 | etot = 3124.99986030197
1064  ekin = 3124.99986030197 | epot = 0 | etot = 3124.99986030197
1065  ekin = 3124.99986030197 | epot = 0 | etot = 3124.99986030197
1066  ekin = 3124.99986030197 | epot = 0 | etot = 3124.99986030197
1067  ekin = 3124.99986030197 | epot = 0 | etot = 3124.99986030197
1068  ekin = 3124.99986030197 | epot = 0 | etot = 3124.99986030197
1069  ekin = 3124.99986030197 | epot = 0 | etot = 3124.99986030197
1070  ekin = 3124.99986030197 | epot = 0 | etot = 3124.99986030197
1071  ekin = 3124.99986030197 | epot = 0 | etot = 3124.99986030197
1072  ekin = 3124.99986030197 | epot = 0 | etot = 3124.99986030197
1073  ekin = 3124.99986030197 | epot = 0 | etot = 3124.99986030197
1074  ekin = 3124.99986030197 | epot = 0 | etot = 3124.99986030197
1075  ekin = 3124.99986030197 | epot = 0 | etot = 3124.99986030197
1076  ekin = 3124.99986030197 | epot = 0 | etot = 3124.99986030197
1077  ekin = 3124.99986030197 | epot = 0 | etot = 3124.99986030197
1078  ekin = 3124.99986030197 | epot = 0 | etot = 3124.99986030197
1079  ekin = 3124.99986030197 | epot = 0 | etot = 3124.99986030197
1080  ekin = 3124.99986030197 | epot = 0 | etot = 3124.99986030197
1081  ekin = 3124.99986030197 | epot = 0 | etot = 3124.99986030197
1082  ekin = 3124.99986030197 | epot = 0 | etot = 3124.99986030197
1083  ekin = 3124.99986030197 | epot = 0 | etot = 3124.99986030197
1084  ekin = 3124.99986030197 | epot = 0 | etot = 3124.99986030197
1085  ekin = 3124.99986030197 | epot = 0 | etot = 3124.99986030197
1086  ekin = 3124.99986030197 | epot = 0 | etot = 3124.99986030197
1087  ekin = 3124.99986030197 | epot = 0 | etot = 3124.99986030197
1088  ekin = 3124.99986030197 | epot = 0 | etot = 3124.99986030197
1089  ekin = 3124.99986030197 | epot = 0 | etot = 3124.99986030197
1090  ekin = 3124.99986030197 | epot = 0 | etot = 3124.99986030197
1091  ekin = 3124.99986030197 | epot = 0 | etot = 3124.99986030197
1092  ekin = 3124.99986030197 | epot = 0 | etot = 3124.99986030197
1093  ekin = 3124.99986030197 | epot = 0 | etot = 3124.99986030197
1094  ekin = 3124.99986030197 | epot = 0 | etot = 3124.99986030197
1095  ekin = 3124.99986030197 | epot = 0 | etot = 3124.99986030197
1096  ekin = 3124.99986030197 | epot = 0 | etot = 3124.99986030197
1097  ekin = 3124.99986030197 | epot = 0 | etot = 3124.99986030197
1098  ekin = 3124.99986030197 | epot = 0 | etot = 3124.99986030197
1099  ekin = 3124.99986030197 | epot = 0 | etot = 3124.99986030197
1100  ekin = 3124.99986030197 | epot = 0 | etot = 3124.99986030197
1101  ekin = 3124.99986030197 | epot = 0 | etot = 3124.99986030197
1102  ekin = 3124.99986030197 | epot = 0 | etot = 3124.99986030197
1103  ekin = 3124.99986030197 | epot = 0 | etot = 3124.99986030197
1104  ekin = 3124.99986030197 | epot = 0 | etot = 3124.99986030197
1105  ekin = 3124.99986030197 | epot = 0 | etot = 3124.99986030197
1106  ekin = 3124.99986030197 | epot = 0 | etot = 3124.99986030197
1107  ekin = 3124.99986030197 | epot = 0 | etot = 3124.99986030197
1108  ekin = 3124.99986030197 | epot = 0 | etot = 3124.99986030197
1109  ekin = 3124.99986030197 | epot = 0 | etot = 3124.99986030197
1110  ekin = 3124.99986030197 | epot = 0 | etot = 3124.99986030197
1111  ekin = 3124.99986030197 | epot = 0 | etot = 3124.99986030197
1112  ekin = 3124.99986030197 | epot = 0 | etot = 3124.99986030197
1113  ekin = 3124.99986030197 | epot = 0 | etot = 3124.99986030197
1114  ekin = 3124.99986030197 | epot = 0 | etot = 3124.99986030197
1115  ekin = 3124.99986030197 | epot = 0 | etot = 3124.99986030197
1116  ekin = 3124.99986030197 | epot = 0 | etot = 3124.99986030197
1117  ekin = 3124.99986030197 | epot = 0 | etot = 3124.99986030197
1118  ekin = 3124.99986030197 | epot = 0 | etot = 3124.99986030197
1119  ekin = 3124.99986030197 | epot = 0 | etot = 3124.99986030197
1120  ekin = 3124.99986030197 | epot = 0 | etot = 3124.99986030197
1121  ekin = 3124.99986030197 | epot = 0 | etot = 3124.99986030197
1122  ekin = 3124.99986030197 | epot = 0 | etot = 3124.99986030197
1123  ekin = 3124.99986030197 | epot = 0 | etot = 3124.99986030197
1124  ekin = 3124.99986030197 | epot = 0 | etot = 3124.99986030197
1125  ekin = 3124.99986030197 | epot = 0 | etot = 3124.99986030197
1126  ekin = 3124.99986030197 | epot = 0 | etot = 3124.99986030197
1127  ekin = 3124.99986030197 | epot = 0 | etot = 3124.99986030197
1128  ekin = 3124.99986030197 | epot = 0 | etot = 3124.99986030197
1129  ekin = 3124.99986030197 | epot = 0 | etot = 3124.99986030197
1130  ekin = 3124.99986030197 | epot = 0 | etot = 3124.99986030197
1131  ekin = 3124.99986030197 | epot = 0 | etot = 3124.99986030197
1132  ekin = 3124.99986030197 | epot = 0 | etot = 3124.99986030197
1133  ekin = 3124.99986030197 | epot = 0 | etot = 3124.99986030197
1134  ekin = 3124.99986030197 | epot = 0 | etot = 3124.99986030197
1135  ekin = 3124.99986030197 | epot = 0 | etot = 3124.99986030197
1136  ekin = 3124.99986030197 | epot = 0 | etot = 3124.99986030197
1137  ekin = 3124.99986030197 | epot = 0 | etot = 3124.99986030197
1138  ekin = 3124.99986030197 | epot = 0 | etot = 3124.99986030197
1139  ekin = 3124.99986030197 | epot = 0 | etot = 3124.99986030197
1140  ekin = 3124.99986030197 | epot = 0 | etot = 3124.99986030197
1141  ekin = 3124.99986030197 | epot = 0 | etot = 3124.99986030197
1142  ekin = 3124.99986030197 | epot = 0 | etot = 3124.99986030197
1143  ekin = 3124.99986030197 | epot = 0 | etot = 3124.99986030197
1144  ekin = 3124.99986030197 | epot = 0 | etot = 3124.99986030197
1145  ekin = 3124.99986030197 | epot = 0 | etot = 3124.99986030197
1146  ekin = 3124.99986030197 | epot = 0 | etot = 3124.99986030197
1147  ekin = 3124.99986030197 | epot = 0 | etot = 3124.99986030197
[...]
9723  ekin = 3124.99986030197 | epot = 0 | etot = 3124.99986030197
9724  ekin = 3124.99986030197 | epot = 0 | etot = 3124.99986030197
9725  ekin = 3124.99986030197 | epot = 0 | etot = 3124.99986030197
9726  ekin = 3124.99986030197 | epot = 0 | etot = 3124.99986030197
9727  ekin = 3124.99986030197 | epot = 0 | etot = 3124.99986030197
9728  ekin = 3124.99986030197 | epot = 0 | etot = 3124.99986030197
9729  ekin = 3124.99986030197 | epot = 0 | etot = 3124.99986030197
9730  ekin = 3124.99986030197 | epot = 0 | etot = 3124.99986030197
9731  ekin = 3124.99986030197 | epot = 0 | etot = 3124.99986030197
9732  ekin = 3124.99986030197 | epot = 0 | etot = 3124.99986030197
9733  ekin = 3124.99986030197 | epot = 0 | etot = 3124.99986030197
9734  ekin = 3124.99986030197 | epot = 0 | etot = 3124.99986030197
9735  ekin = 3124.99986030197 | epot = 0 | etot = 3124.99986030197
9736  ekin = 3124.99986030197 | epot = 0 | etot = 3124.99986030197
9737  ekin = 3124.99986030197 | epot = 0 | etot = 3124.99986030197
9738  ekin = 3124.99986030197 | epot = 0 | etot = 3124.99986030197
9739  ekin = 3124.99986030197 | epot = 0 | etot = 3124.99986030197
9740  ekin = 3124.99986030197 | epot = 0 | etot = 3124.99986030197
9741  ekin = 3124.99986030197 | epot = 0 | etot = 3124.99986030197
9742  ekin = 3124.99986030197 | epot = 0 | etot = 3124.99986030197
9743  ekin = 3124.99986030197 | epot = 0 | etot = 3124.99986030197
9744  ekin = 3124.99986030197 | epot = 0 | etot = 3124.99986030197
9745  ekin = 3124.99986030197 | epot = 0 | etot = 3124.99986030197
9746  ekin = 3124.99986030197 | epot = 0 | etot = 3124.99986030197
9747  ekin = 3124.99986030197 | epot = 0 | etot = 3124.99986030197
9748  ekin = 3124.99986030197 | epot = 0 | etot = 3124.99986030197
9749  ekin = 3124.99986030197 | epot = 0 | etot = 3124.99986030197
9750  ekin = 3124.99986030197 | epot = 0 | etot = 3124.99986030197
9751  ekin = 3124.99986030197 | epot = 0 | etot = 3124.99986030197
9752  ekin = 3124.99986030197 | epot = 0 | etot = 3124.99986030197
9753  ekin = 3124.99986030197 | epot = 0 | etot = 3124.99986030197
9754  ekin = 3124.99986030197 | epot = 0 | etot = 3124.99986030197
9755  ekin = 3124.99986030197 | epot = 0 | etot = 3124.99986030197
9756  ekin = 3124.99986030197 | epot = 0 | etot = 3124.99986030197
9757  ekin = 3124.99986030197 | epot = 0 | etot = 3124.99986030197
9758  ekin = 3124.99986030197 | epot = 0 | etot = 3124.99986030197
9759  ekin = 3124.99986030197 | epot = 0 | etot = 3124.99986030197
9760  ekin = 3124.99986030197 | epot = 0 | etot = 3124.99986030197
9761  ekin = 3124.99986030197 | epot = 0 | etot = 3124.99986030197
9762  ekin = 3124.99986030197 | epot = 0 | etot = 3124.99986030197
9763  ekin = 3124.99986030197 | epot = 0 | etot = 3124.99986030197
9764  ekin = 3124.99986030197 | epot = 0 | etot = 3124.99986030197
9765  ekin = 3124.99986030197 | epot = 0 | etot = 3124.99986030197
9766  ekin = 3124.99986030197 | epot = 0 | etot = 3124.99986030197
9767  ekin = 3124.99986030197 | epot = 0 | etot = 3124.99986030197
9768  ekin = 3124.99986030197 | epot = 0 | etot = 3124.99986030197
9769  ekin = 3124.99986030197 | epot = 0 | etot = 3124.99986030197
9770  ekin = 3124.99986030197 | epot = 0 | etot = 3124.99986030197
9771  ekin = 3124.99986030197 | epot = 0 | etot = 3124.99986030197
9772  ekin = 3124.99986030197 | epot = 0 | etot = 3124.99986030197
9773  ekin = 3124.99986030197 | epot = 0 | etot = 3124.99986030197
9774  ekin = 3124.99986030197 | epot = 0 | etot = 3124.99986030197
9775  ekin = 3124.99986030197 | epot = 0 | etot = 3124.99986030197
9776  ekin = 3124.99986030197 | epot = 0 | etot = 3124.99986030197
9777  ekin = 3124.99986030197 | epot = 0 | etot = 3124.99986030197
9778  ekin = 3124.99986030197 | epot = 0 | etot = 3124.99986030197
9779  ekin = 3124.99986030197 | epot = 0 | etot = 3124.99986030197
9780  ekin = 3124.99986030197 | epot = 0 | etot = 3124.99986030197
9781  ekin = 3124.99986030197 | epot = 0 | etot = 3124.99986030197
9782  ekin = 3124.99986030197 | epot = 0 | etot = 3124.99986030197
9783  ekin = 3124.99986030197 | epot = 0 | etot = 3124.99986030197
9784  ekin = 3124.99986030197 | epot = 0 | etot = 3124.99986030197
9785  ekin = 3124.99986030197 | epot = 0 | etot = 3124.99986030197
9786  ekin = 3124.99986030197 | epot = 0 | etot = 3124.99986030197
9787  ekin = 3124.99986030197 | epot = 0 | etot = 3124.99986030197
9788  ekin = 3124.99986030197 | epot = 0 | etot = 3124.99986030197
9789  ekin = 3124.99986030197 | epot = 0 | etot = 3124.99986030197
9790  ekin = 3124.99986030197 | epot = 0 | etot = 3124.99986030197
9791  ekin = 3124.99986030197 | epot = 0 | etot = 3124.99986030197
9792  ekin = 3124.99986030197 | epot = 0 | etot = 3124.99986030197
9793  ekin = 3124.99986030197 | epot = 0 | etot = 3124.99986030197
9794  ekin = 3124.99986030197 | epot = 0 | etot = 3124.99986030197
9795  ekin = 3124.99986030197 | epot = 0 | etot = 3124.99986030197
9796  ekin = 3124.99986030197 | epot = 0 | etot = 3124.99986030197
9797  ekin = 3124.99986030197 | epot = 0 | etot = 3124.99986030197
9798  ekin = 3124.99986030197 | epot = 0 | etot = 3124.99986030197
9799  ekin = 3124.99986030197 | epot = 0 | etot = 3124.99986030197
9800  ekin = 3124.99986030197 | epot = 0 | etot = 3124.99986030197
9801  ekin = 3124.99986030197 | epot = 0 | etot = 3124.99986030197
9802  ekin = 3124.99986030197 | epot = 0 | etot = 3124.99986030197
9803  ekin = 3124.99986030197 | epot = 0 | etot = 3124.99986030197
9804  ekin = 3124.99986030197 | epot = 0 | etot = 3124.99986030197
9805  ekin = 3124.99986030197 | epot = 0 | etot = 3124.99986030197
9806  ekin = 3124.99986030197 | epot = 0 | etot = 3124.99986030197
9807  ekin = 3124.99986030197 | epot = 0 | etot = 3124.99986030197
9808  ekin = 3124.99986030197 | epot = 0 | etot = 3124.99986030197
9809  ekin = 3124.99986030197 | epot = 0 | etot = 3124.99986030197
9810  ekin = 3124.99986030197 | epot = 0 | etot = 3124.99986030197
9811  ekin = 3124.99986030197 | epot = 0 | etot = 3124.99986030197
9812  ekin = 3124.99986030197 | epot = 0 | etot = 3124.99986030197
9813  ekin = 3124.99986030197 | epot = 0 | etot = 3124.99986030197
9814  ekin = 3124.99986030197 | epot = 0 | etot = 3124.99986030197
9815  ekin = 3124.99986030197 | epot = 0 | etot = 3124.99986030197
9816  ekin = 3124.99986030197 | epot = 0 | etot = 3124.99986030197
9817  ekin = 3124.99986030197 | epot = 0 | etot = 3124.99986030197
9818  ekin = 3124.99986030197 | epot = 0 | etot = 3124.99986030197
9819  ekin = 3124.99986030197 | epot = 0 | etot = 3124.99986030197
9820  ekin = 3124.99986030197 | epot = 0 | etot = 3124.99986030197
9821  ekin = 3124.99986030197 | epot = 0 | etot = 3124.99986030197
9822  ekin = 3124.99986030197 | epot = 0 | etot = 3124.99986030197
9823  ekin = 3124.99986030197 | epot = 0 | etot = 3124.99986030197
9824  ekin = 3124.99986030197 | epot = 0 | etot = 3124.99986030197
9825  ekin = 3124.99986030197 | epot = 0 | etot = 3124.99986030197
9826  ekin = 3124.99986030197 | epot = 0 | etot = 3124.99986030197
9827  ekin = 3124.99986030197 | epot = 0 | etot = 3124.99986030197
9828  ekin = 3124.99986030197 | epot = 0 | etot = 3124.99986030197
9829  ekin = 3124.99986030197 | epot = 0 | etot = 3124.99986030197
9830  ekin = 3124.99986030197 | epot = 0 | etot = 3124.99986030197
9831  ekin = 3124.99986030197 | epot = 0 | etot = 3124.99986030197
9832  ekin = 3124.99986030197 | epot = 0 | etot = 3124.99986030197
9833  ekin = 3124.99986030197 | epot = 0 | etot = 3124.99986030197
9834  ekin = 3124.99986030197 | epot = 0 | etot = 3124.99986030197
9835  ekin = 3124.99986030197 | epot = 0 | etot = 3124.99986030197
9836  ekin = 3124.99986030197 | epot = 0 | etot = 3124.99986030197
9837  ekin = 3124.99986030197 | epot = 0 | etot = 3124.99986030197
9838  ekin = 3124.99986030197 | epot = 0 | etot = 3124.99986030197
9839  ekin = 3124.99986030197 | epot = 0 | etot = 3124.99986030197
9840  ekin = 3124.99986030197 | epot = 0 | etot = 3124.99986030197
9841  ekin = 3124.99986030197 | epot = 0 | etot = 3124.99986030197
9842  ekin = 3124.99986030197 | epot = 0 | etot = 3124.99986030197
9843  ekin = 3124.99986030197 | epot = 0 | etot = 3124.99986030197
9844  ekin = 3124.99986030197 | epot = 0 | etot = 3124.99986030197
9845  ekin = 3124.99986030197 | epot = 0 | etot = 3124.99986030197
9846  ekin = 3124.99986030197 | epot = 0 | etot = 3124.99986030197
9847  ekin = 3124.99986030197 | epot = 0 | etot = 3124.99986030197
9848  ekin = 3124.99986030197 | epot = 0 | etot = 3124.99986030197
9849  ekin = 3124.99986030197 | epot = 0 | etot = 3124.99986030197
9850  ekin = 3124.99986030197 | epot = 0 | etot = 3124.99986030197
9851  ekin = 3124.99986030197 | epot = 0 | etot = 3124.99986030197
9852  ekin = 3124.99986030197 | epot = 0 | etot = 3124.99986030197
9853  ekin = 3124.99986030197 | epot = 0 | etot = 3124.99986030197
9854  ekin = 3124.99986030197 | epot = 0 | etot = 3124.99986030197
9855  ekin = 3124.99986030197 | epot = 0 | etot = 3124.99986030197
9856  ekin = 3124.99986030197 | epot = 0 | etot = 3124.99986030197
9857  ekin = 3124.99986030197 | epot = 0 | etot = 3124.99986030197
9858  ekin = 3124.99986030197 | epot = 0 | etot = 3124.99986030197
9859  ekin = 3124.99986030197 | epot = 0 | etot = 3124.99986030197
9860  ekin = 3124.99986030197 | epot = 0 | etot = 3124.99986030197
9861  ekin = 3124.99986030197 | epot = 0 | etot = 3124.99986030197
9862  ekin = 3124.99986030197 | epot = 0 | etot = 3124.99986030197
9863  ekin = 3124.99986030197 | epot = 0 | etot = 3124.99986030197
9864  ekin = 3124.99986030197 | epot = 0 | etot = 3124.99986030197
9865  ekin = 3124.99986030197 | epot = 0 | etot = 3124.99986030197
9866  ekin = 3124.99986030197 | epot = 0 | etot = 3124.99986030197
9867  ekin = 3124.99986030197 | epot = 0 | etot = 3124.99986030197
9868  ekin = 3124.99986030197 | epot = 0 | etot = 3124.99986030197
9869  ekin = 3124.99986030197 | epot = 0 | etot = 3124.99986030197
9870  ekin = 3124.99986030197 | epot = 0 | etot = 3124.99986030197
9871  ekin = 3124.99986030197 | epot = 0 | etot = 3124.99986030197
9872  ekin = 3124.99986030197 | epot = 0 | etot = 3124.99986030197
9873  ekin = 3124.99986030197 | epot = 0 | etot = 3124.99986030197
9874  ekin = 3124.99986030197 | epot = 0 | etot = 3124.99986030197
9875  ekin = 3124.99986030197 | epot = 0 | etot = 3124.99986030197
9876  ekin = 3124.99986030197 | epot = 0 | etot = 3124.99986030197
9877  ekin = 3124.99986030197 | epot = 0 | etot = 3124.99986030197
9878  ekin = 3124.99986030197 | epot = 0 | etot = 3124.99986030197
9879  ekin = 3124.99986030197 | epot = 0 | etot = 3124.99986030197
9880  ekin = 3124.99986030197 | epot = 0 | etot = 3124.99986030197
9881  ekin = 3124.99986030197 | epot = 0 | etot = 3124.99986030197
9882  ekin = 3124.99986030197 | epot = 0 | etot = 3124.99986030197
9883  ekin = 3124.99986030197 | epot = 0 | etot = 3124.99986030197
9884  ekin = 3124.99986030197 | epot = 0 | etot = 3124.99986030197
9885  ekin = 3124.99986030197 | epot = 0 | etot = 3124.99986030197
9886  ekin = 3124.99986030197 | epot = 0 | etot = 3124.99986030197
9887  ekin = 3124.99986030197 | epot = 0 | etot = 3124.99986030197
9888  ekin = 3124.99986030197 | epot = 0 | etot = 3124.99986030197
9889  ekin = 3124.99986030197 | epot = 0 | etot = 3124.99986030197
9890  ekin = 3124.99986030197 | epot = 0 | etot = 3124.99986030197
9891  ekin = 3124.99986030197 | epot = 0 | etot = 3124.99986030197
9892  ekin = 3124.99986030197 | epot = 0 | etot = 3124.99986030197
9893  ekin = 3124.99986030197 | epot = 0 | etot = 3124.99986030197
9894  ekin = 3124.99986030197 | epot = 0 | etot = 3124.99986030197
9895  ekin = 3124.99986030197 | epot = 0 | etot = 3124.99986030197
9896  ekin = 3124.99986030197 | epot = 0 | etot = 3124.99986030197
9897  ekin = 3124.99986030197 | epot = 0 | etot = 3124.99986030197
9898  ekin = 3124.99986030197 | epot = 0 | etot = 3124.99986030197
9899  ekin = 3124.99986030197 | epot = 0 | etot = 3124.99986030197
9900  ekin = 3124.99986030197 | epot = 0 | etot = 3124.99986030197
9901  ekin = 3124.99986030197 | epot = 0 | etot = 3124.99986030197
9902  ekin = 3124.99986030197 | epot = 0 | etot = 3124.99986030197
9903  ekin = 3124.99986030197 | epot = 0 | etot = 3124.99986030197
9904  ekin = 3124.99986030197 | epot = 0 | etot = 3124.99986030197
9905  ekin = 3124.99986030197 | epot = 0 | etot = 3124.99986030197
9906  ekin = 3124.99986030197 | epot = 0 | etot = 3124.99986030197
9907  ekin = 3124.99986030197 | epot = 0 | etot = 3124.99986030197
9908  ekin = 3124.99986030197 | epot = 0 | etot = 3124.99986030197
9909  ekin = 3124.99986030197 | epot = 0 | etot = 3124.99986030197
9910  ekin = 3124.99986030197 | epot = 0 | etot = 3124.99986030197
9911  ekin = 3124.99986030197 | epot = 0 | etot = 3124.99986030197
9912  ekin = 3124.99986030197 | epot = 0 | etot = 3124.99986030197
9913  ekin = 3124.99986030197 | epot = 0 | etot = 3124.99986030197
9914  ekin = 3124.99986030197 | epot = 0 | etot = 3124.99986030197
9915  ekin = 3124.99986030197 | epot = 0 | etot = 3124.99986030197
9916  ekin = 3124.99986030197 | epot = 0 | etot = 3124.99986030197
9917  ekin = 3124.99986030197 | epot = 0 | etot = 3124.99986030197
9918  ekin = 3124.99986030197 | epot = 0 | etot = 3124.99986030197
9919  ekin = 3124.99986030197 | epot = 0 | etot = 3124.99986030197
9920  ekin = 3124.99986030197 | epot = 0 | etot = 3124.99986030197
9921  ekin = 3124.99986030197 | epot = 0 | etot = 3124.99986030197
9922  ekin = 3124.99986030197 | epot = 0 | etot = 3124.99986030197
9923  ekin = 3124.99986030197 | epot = 0 | etot = 3124.99986030197
9924  ekin = 3124.99986030197 | epot = 0 | etot = 3124.99986030197
9925  ekin = 3124.99986030197 | epot = 0 | etot = 3124.99986030197
9926  ekin = 3124.99986030197 | epot = 0 | etot = 3124.99986030197
9927  ekin = 3124.99986030197 | epot = 0 | etot = 3124.99986030197
9928  ekin = 3124.99986030197 | epot = 0 | etot = 3124.99986030197
9929  ekin = 3124.99986030197 | epot = 0 | etot = 3124.99986030197
9930  ekin = 3124.99986030197 | epot = 0 | etot = 3124.99986030197
9931  ekin = 3124.99986030197 | epot = 0 | etot = 3124.99986030197
9932  ekin = 3124.99986030197 | epot = 0 | etot = 3124.99986030197
9933  ekin = 3124.99986030197 | epot = 0 | etot = 3124.99986030197
9934  ekin = 3124.99986030197 | epot = 0 | etot = 3124.99986030197
9935  ekin = 3124.99986030197 | epot = 0 | etot = 3124.99986030197
9936  ekin = 3124.99986030197 | epot = 0 | etot = 3124.99986030197
9937  ekin = 3124.99986030197 | epot = 0 | etot = 3124.99986030197
9938  ekin = 3124.99986030197 | epot = 0 | etot = 3124.99986030197
9939  ekin = 3124.99986030197 | epot = 0 | etot = 3124.99986030197
9940  ekin = 3124.99986030197 | epot = 0 | etot = 3124.99986030197
9941  ekin = 3124.99986030197 | epot = 0 | etot = 3124.99986030197
9942  ekin = 3124.99986030197 | epot = 0 | etot = 3124.99986030197
9943  ekin = 3124.99986030197 | epot = 0 | etot = 3124.99986030197
9944  ekin = 3124.99986030197 | epot = 0 | etot = 3124.99986030197
9945  ekin = 3124.99986030197 | epot = 0 | etot = 3124.99986030197
9946  ekin = 3124.99986030197 | epot = 0 | etot = 3124.99986030197
9947  ekin = 3124.99986030197 | epot = 0 | etot = 3124.99986030197
9948  ekin = 3124.99986030197 | epot = 0 | etot = 3124.99986030197
9949  ekin = 3124.99986030197 | epot = 0 | etot = 3124.99986030197
9950  ekin = 3124.99986030197 | epot = 0 | etot = 3124.99986030197
9951  ekin = 3124.99986030197 | epot = 0 | etot = 3124.99986030197
9952  ekin = 3124.99986030197 | epot = 0 | etot = 3124.99986030197
9953  ekin = 3124.99986030197 | epot = 0 | etot = 3124.99986030197
9954  ekin = 3124.99986030197 | epot = 0 | etot = 3124.99986030197
9955  ekin = 3124.99986030197 | epot = 0 | etot = 3124.99986030197
9956  ekin = 3124.99986030197 | epot = 0 | etot = 3124.99986030197
9957  ekin = 3124.99986030197 | epot = 0 | etot = 3124.99986030197
9958  ekin = 3124.99986030197 | epot = 0 | etot = 3124.99986030197
9959  ekin = 3124.99986030197 | epot = 0 | etot = 3124.99986030197
9960  ekin = 3124.99986030197 | epot = 0 | etot = 3124.99986030197
9961  ekin = 3124.99986030197 | epot = 0 | etot = 3124.99986030197
9962  ekin = 3124.99986030197 | epot = 0 | etot = 3124.99986030197
9963  ekin = 3124.99986030197 | epot = 0 | etot = 3124.99986030197
9964  ekin = 3124.99986030197 | epot = 0 | etot = 3124.99986030197
9965  ekin = 3124.99986030197 | epot = 0 | etot = 3124.99986030197
9966  ekin = 3124.99986030197 | epot = 0 | etot = 3124.99986030197
9967  ekin = 3124.99986030197 | epot = 0 | etot = 3124.99986030197
9968  ekin = 3124.99986030197 | epot = 0 | etot = 3124.99986030197
9969  ekin = 3124.99986030197 | epot = 0 | etot = 3124.99986030197
9970  ekin = 3124.99986030197 | epot = 0 | etot = 3124.99986030197
9971  ekin = 3124.99986030197 | epot = 0 | etot = 3124.99986030197
9972  ekin = 3124.99986030197 | epot = 0 | etot = 3124.99986030197
9973  ekin = 3124.99986030197 | epot = 0 | etot = 3124.99986030197
9974  ekin = 3124.99986030197 | epot = 0 | etot = 3124.99986030197
9975  ekin = 3124.99986030197 | epot = 0 | etot = 3124.99986030197
9976  ekin = 3124.99986030197 | epot = 0 | etot = 3124.99986030197
9977  ekin = 3124.99986030197 | epot = 0 | etot = 3124.99986030197
9978  ekin = 3124.99986030197 | epot = 0 | etot = 3124.99986030197
9979  ekin = 3124.99986030197 | epot = 0 | etot = 3124.99986030197
9980  ekin = 3124.99986030197 | epot = 0 | etot = 3124.99986030197
9981  ekin = 3124.99986030197 | epot = 0 | etot = 3124.99986030197
9982  ekin = 3124.99986030197 | epot = 0 | etot = 3124.99986030197
9983  ekin = 3124.99986030197 | epot = 0 | etot = 3124.99986030197
9984  ekin = 3124.99986030197 | epot = 0 | etot = 3124.99986030197
9985  ekin = 3124.99986030197 | epot = 0 | etot = 3124.99986030197
9986  ekin = 3124.99986030197 | epot = 0 | etot = 3124.99986030197
9987  ekin = 3124.99986030197 | epot = 0 | etot = 3124.99986030197
9988  ekin = 3124.99986030197 | epot = 0 | etot = 3124.99986030197
9989  ekin = 3124.99986030197 | epot = 0 | etot = 3124.99986030197
9990  ekin = 3124.99986030197 | epot = 0 | etot = 3124.99986030197
9991  ekin = 3124.99986030197 | epot = 0 | etot = 3124.99986030197
9992  ekin = 3124.99986030197 | epot = 0 | etot = 3124.99986030197
9993  ekin = 3124.99986030197 | epot = 0 | etot = 3124.99986030197
9994  ekin = 3124.99986030197 | epot = 0 | etot = 3124.99986030197
9995  ekin = 3124.99986030197 | epot = 0 | etot = 3124.99986030197
9996  ekin = 3124.99986030197 | epot = 0 | etot = 3124.99986030197
9997  ekin = 3124.99986030197 | epot = 0 | etot = 3124.99986030197
9998  ekin = 3124.99986030197 | epot = 0 | etot = 3124.99986030197
9999  ekin = 3124.99986030197 | epot = 0 | etot = 3124.99986030197
10000  ekin = 3124.99986030197 | epot = 0 | etot = 3124.99986030197
     10000   2083.3332      0              0              1562.4999      16.276041    
Loop time of 1.92846 on 2 procs for 10000 steps with 2 atoms

Performance: 448026.692 tau/day, 5185.494 timesteps/s, 10.371 katom-step/s
63.6% CPU use with 2 MPI tasks x no OpenMP threads

MPI task timing breakdown:
Section |  min time  |  avg time  |  max time  |%varavg| %total
---------------------------------------------------------------
Pair    | 0.00244    | 0.0035965  | 0.0047529  |   1.9 |  0.19
Neigh   | 0.00062092 | 0.00063974 | 0.00065856 |   0.0 |  0.03
Comm    | 0.54597    | 0.55063    | 0.55529    |   0.6 | 28.55
Output  | 0.29289    | 0.69597    | 1.0991     |  48.3 | 36.09
Modify  | 0.17278    | 0.20129    | 0.2298     |   6.4 | 10.44
Other   |            | 0.4763     |            |       | 24.70

Nlocal:              1 ave           1 max           1 min
Histogram: 2 0 0 0 0 0 0 0 0 0
Nghost:           21.5 ave          26 max          17 min
Histogram: 1 0 0 0 0 0 0 0 0 1
Neighs:            0.5 ave           1 max           0 min
Histogram: 1 0 0 0 0 0 0 0 0 1

Total # of neighbors = 1
Ave neighs/atom = 0.5
Neighbor list builds = 132
Dangerous builds = 0

write_data data_out.* nocoeff
System init for write_data ...
Generated 0 of 0 mixed pair_coeff terms from geometric mixing rule

Total wall time: 0:00:01
