LAMMPS (19 Nov 2024 - Development - patch_19Nov2024-564-gf96768effb-modified)
KOKKOS mode with Kokkos version 4.5.1 is enabled (src/KOKKOS/kokkos.cpp:72)
  using 1 OpenMP thread(s) per MPI task
Lattice spacing in x,y,z = 1.1006424 1.1006424 1.1006424
Created orthogonal box = (0 0 0) to (23.113491 23.113491 23.113491)
  1 by 2 by 2 MPI processor grid
Created 9261 atoms
  using lattice units in orthogonal box = (0 0 0) to (23.113491 23.113491 23.113491)
  create_atoms CPU = 0.001 seconds
9261 atoms in group all
Setting atom values ...
  9261 settings made for mass
Setting atom values ...
  9261 settings made for shape
Setting atom values ...
  9261 settings made for quat/random
Resetting atom IDs ...
Generated 0 of 0 mixed pair_coeff terms from geometric mixing rule
Neighbor list info ...
  update: every = 100 steps, delay = 0 steps, check = yes
  max neighbors/atom: 2000, page size: 100000
  master list distance cutoff = 1.4224615
  ghost atom cutoff = 1.4224615
  binsize = 0.71123076, bins = 33 33 33
  1 neighbor lists, perpetual/occasional/extra = 1 0 0
  (1) pair lj/cut/kk, perpetual
      attributes: half, newton on, kokkos_device
      pair build: half/bin/newton/kk/device
      stencil: half/bin/3d
      bin: kk/device
Generated 0 of 0 mixed pair_coeff terms from geometric mixing rule
Setting up Verlet run ...
  Unit style    : lj
  Current step  : 0
  Time step     : 0.0001
0  ekin = 1389 | epot = 10856.1296801343 | etot = 12245.1296801343
Per MPI rank memory allocation (min/avg/max) = 7.379 | 7.379 | 7.379 Mbytes
   Step          Temp          E_pair         E_mol          TotEng         Press     
         0   0.1            1.1722416      0              1.3222254      17.886598    
5000  ekin = 7576.81878394667 | epot = 4668.44203584166 | etot = 12245.2608197883
10000  ekin = 7974.78097824013 | epot = 4270.8890470895 | etot = 12245.6700253296
15000  ekin = 8059.60759530865 | epot = 4186.0519056483 | etot = 12245.6595009569
20000  ekin = 8027.5966598399 | epot = 4218.20316912296 | etot = 12245.7998289629
25000  ekin = 8038.43026309292 | epot = 4207.61193752117 | etot = 12246.0422006141
30000  ekin = 8119.51591851385 | epot = 4126.60477774841 | etot = 12246.1206962623
35000  ekin = 8084.00496483316 | epot = 4162.26593450746 | etot = 12246.2708993406
40000  ekin = 7988.18641799613 | epot = 4258.09011068389 | etot = 12246.27652868
45000  ekin = 8041.55905174537 | epot = 4204.7061217734 | etot = 12246.2651735188
50000  ekin = 8028.58899185995 | epot = 4217.61193349214 | etot = 12246.2009253521
55000  ekin = 8076.02994134342 | epot = 4170.19762485182 | etot = 12246.2275661952
60000  ekin = 8099.17927125911 | epot = 4147.28635204467 | etot = 12246.4656233038
65000  ekin = 8097.94275607141 | epot = 4148.47638506279 | etot = 12246.4191411342
70000  ekin = 8073.57718260381 | epot = 4172.45355370104 | etot = 12246.0307363049
75000  ekin = 8111.79215620621 | epot = 4134.37297129288 | etot = 12246.1651274991
80000  ekin = 8078.27559525317 | epot = 4167.89865142286 | etot = 12246.174246676
85000  ekin = 8185.70566775745 | epot = 4060.18483954462 | etot = 12245.8905073021
90000  ekin = 8054.9013932445 | epot = 4191.25096523747 | etot = 12246.152358482
95000  ekin = 8119.32381419921 | epot = 4127.12311567724 | etot = 12246.4469298765
100000  ekin = 8140.70707566681 | epot = 4105.51188576063 | etot = 12246.2189614274
    100000   0.58608402     0.44331194     0              1.322343       6.2102401    
Loop time of 36.5268 on 4 procs for 100000 steps with 9261 atoms

Performance: 23653.850 tau/day, 2737.714 timesteps/s, 25.354 Matom-step/s
82.6% CPU use with 4 MPI tasks x 1 OpenMP threads

MPI task timing breakdown:
Section |  min time  |  avg time  |  max time  |%varavg| %total
---------------------------------------------------------------
Pair    | 3.8185     | 3.8352     | 3.8603     |   0.8 | 10.50
Neigh   | 0.1582     | 0.15865    | 0.15916    |   0.1 |  0.43
Comm    | 17.821     | 18.337     | 18.626     |   7.3 | 50.20
Output  | 0.04838    | 0.0499     | 0.051163   |   0.5 |  0.14
Modify  | 11.404     | 11.637     | 12.034     |   7.4 | 31.86
Other   |            | 2.509      |            |       |  6.87

Nlocal:        2315.25 ave        2323 max        2307 min
Histogram: 1 0 0 0 0 2 0 0 0 1
Nghost:          12299 ave       12308 max       12290 min
Histogram: 1 1 0 0 0 0 0 0 1 1
Neighs:        11893.8 ave       11981 max       11821 min
Histogram: 1 0 1 0 0 1 0 0 0 1

Total # of neighbors = 47575
Ave neighs/atom = 5.1371342
Neighbor list builds = 198
Dangerous builds = 0
System init for write_data ...
Generated 0 of 0 mixed pair_coeff terms from geometric mixing rule
Total wall time: 0:00:36

BEGIN KOKKOS PROFILING REPORT:
TOTAL TIME: 36.552 seconds
TOP-DOWN TIME TREE:
<average time> <percent of total time> <percent time in Kokkos> <percent MPI imbalance> <remainder> <kernels per second> <number of calls> <name> [type]
===================
|-> 1.05e+01 sec 28.6% 100.0% 0.0% ------ 100000 LAMMPS_NS::FixNVEAsphereKokkosInitialIntegrateFunctor<Kokkos::Serial> [for]
|-> 3.55e+00 sec 9.7% 100.0% 0.0% ------ 99980 LAMMPS_NS::PairComputeFunctor<LAMMPS_NS::PairLJCutKokkos<Kokkos::Serial>, 4, true, 0, void> [for]
|-> 2.35e+00 sec 6.4% 100.0% 0.0% ------ 200002 Zero<Kokkos::View<double* [3], Kokkos::LayoutRight, Kokkos::Serial, void> > [for]
|-> 6.11e-01 sec 1.7% 100.0% 0.0% ------ 100000 LAMMPS_NS::FixNVEAsphereKokkosFinalIntegrateFunctor<Kokkos::Serial> [for]
|-> 1.21e-01 sec 0.3% 100.0% 0.0% ------ 199 LAMMPS_NS::NPairKokkosBuildFunctor<Kokkos::Serial, 1, 1, 0> [for]

BOTTOM-UP TIME TREE:
<average time> <percent of total time> <percent time in Kokkos> <percent MPI imbalance> <number of calls> <name> [type]
===================
|-> 1.05e+01 sec 28.6% 100.0% 0.0% ------ 100000 LAMMPS_NS::FixNVEAsphereKokkosInitialIntegrateFunctor<Kokkos::Serial> [for]

BEGIN KOKKOS PROFILING REPORT:
TOTAL TIME: 36.552 seconds
TOP-DOWN TIME TREE:
<average time> <percent of total time> <percent time in Kokkos> <percent MPI imbalance> <remainder> <kernels per second> <number of calls> <name> [type]
===================
|-> 1.07e+01 sec 29.3% 100.0% 0.0% ------ 100000 LAMMPS_NS::FixNVEAsphereKokkosInitialIntegrateFunctor<Kokkos::Serial> [for]
|-> 3.58e+00 sec 9.8% 100.0% 0.0% ------ 99980 LAMMPS_NS::PairComputeFunctor<LAMMPS_NS::PairLJCutKokkos<Kokkos::Serial>, 4, true, 0, void> [for]
|-> 2.26e+00 sec 6.2% 100.0% 0.0% ------ 200002 Zero<Kokkos::View<double* [3], Kokkos::LayoutRight, Kokkos::Serial, void> > [for]
|-> 6.32e-01 sec 1.7% 100.0% 0.0% ------ 100000 LAMMPS_NS::FixNVEAsphereKokkosFinalIntegrateFunctor<Kokkos::Serial> [for]
|-> 1.22e-01 sec 0.3% 100.0% 0.0% ------ 199 LAMMPS_NS::NPairKokkosBuildFunctor<Kokkos::Serial, 1, 1, 0> [for]

BEGIN KOKKOS PROFILING REPORT:
TOTAL TIME: 36.5519 seconds
TOP-DOWN TIME TREE:
<average time> <percent of total time> <percent time in Kokkos> <percent MPI imbalance> <remainder> <kernels per second> <number of calls> <name> [type]
===================
|-> 1.10e+01 sec 30.2% 100.0% 0.0% ------ 100000 LAMMPS_NS::FixNVEAsphereKokkosInitialIntegrateFunctor<Kokkos::Serial> [for]
|-> 3.59e+00 sec 9.8% 100.0% 0.0% ------ 99980 LAMMPS_NS::PairComputeFunctor<LAMMPS_NS::PairLJCutKokkos<Kokkos::Serial>, 4, true, 0, void> [for]
|-> 2.42e+00 sec 6.6% 100.0% 0.0% ------ 200002 Zero<Kokkos::View<double* [3], Kokkos::LayoutRight, Kokkos::Serial, void> > [for]
|-> 6.51e-01 sec 1.8% 100.0% 0.0% ------ 100000 LAMMPS_NS::FixNVEAsphereKokkosFinalIntegrateFunctor<Kokkos::Serial> [for]
|-> 1.21e-01 sec 0.3% 100.0% 0.0% ------ 199 LAMMPS_NS::NPairKokkosBuildFunctor<Kokkos::Serial, 1, 1, 0> [for]

BOTTOM-UP TIME TREE:
<average time> <percent of total time> <percent time in Kokkos> <percent MPI imbalance> <number of calls> <name> [type]
===================
|-> 1.10e+01 sec 30.2% 100.0% 0.0% ------ 100000 LAMMPS_NS::FixNVEAsphereKokkosInitialIntegrateFunctor<Kokkos::Serial> [for]
|-> 3.59e+00 sec 9.8% 100.0% 0.0% ------ 99980 LAMMPS_NS::PairComputeFunctor<LAMMPS_NS::PairLJCutKokkos<Kokkos::Serial>, 4, true, 0, void> [for]
|-> 2.42e+00 sec 6.6% 100.0% 0.0% ------ 200002 Zero<Kokkos::View<double* [3], Kokkos::LayoutRight, Kokkos::Serial, void> > [for]
|-> 6.51e-01 sec 1.8% 100.0% 0.0% ------ 100000 LAMMPS_NS::FixNVEAsphereKokkosFinalIntegrateFunctor<Kokkos::Serial> [for]
|-> 1.21e-01 sec 0.3% 100.0% 0.0% ------ 199 LAMMPS_NS::NPairKokkosBuildFunctor<Kokkos::Serial, 1, 1, 0> [for]

KOKKOS HOST SPACE:
===================

BEGIN KOKKOS PROFILING REPORT:
TOTAL TIME: 36.5519 seconds
TOP-DOWN TIME TREE:
<average time> <percent of total time> <percent time in Kokkos> <percent MPI imbalance> <remainder> <kernels per second> <number of calls> <name> [type]
===================
|-> 1.05e+01 sec 28.6% 100.0% 0.0% ------ 100000 LAMMPS_NS::FixNVEAsphereKokkosInitialIntegrateFunctor<Kokkos::Serial> [for]
|-> 3.56e+00 sec 9.8% 100.0% 0.0% ------ 99980 LAMMPS_NS::PairComputeFunctor<LAMMPS_NS::PairLJCutKokkos<Kokkos::Serial>, 4, true, 0, void> [for]
|-> 2.28e+00 sec 6.2% 100.0% 0.0% ------ 200002 Zero<Kokkos::View<double* [3], Kokkos::LayoutRight, Kokkos::Serial, void> > [for]
|-> 5.95e-01 sec 1.6% 100.0% 0.0% ------ 100000 LAMMPS_NS::FixNVEAsphereKokkosFinalIntegrateFunctor<Kokkos::Serial> [for]
|-> 1.21e-01 sec 0.3% 100.0% 0.0% ------ 199 LAMMPS_NS::NPairKokkosBuildFunctor<Kokkos::Serial, 1, 1, 0> [for]

BOTTOM-UP TIME TREE:
<average time> <percent of total time> <percent time in Kokkos> <percent MPI imbalance> <number of calls> <name> [type]
===================
|-> 1.05e+01 sec 28.6% 100.0% 0.0% ------ 100000 LAMMPS_NS::FixNVEAsphereKokkosInitialIntegrateFunctor<Kokkos::Serial> [for]
|-> 3.56e+00 sec 9.8% 100.0% 0.0% ------ 99980 LAMMPS_NS::PairComputeFunctor<LAMMPS_NS::PairLJCutKokkos<Kokkos::Serial>, 4, true, 0, void> [for]
|-> 2.28e+00 sec 6.2% 100.0% 0.0% ------ 200002 Zero<Kokkos::View<double* [3], Kokkos::LayoutRight, Kokkos::Serial, void> > [for]
|-> 5.95e-01 sec 1.6% 100.0% 0.0% ------ 100000 LAMMPS_NS::FixNVEAsphereKokkosFinalIntegrateFunctor<Kokkos::Serial> [for]
|-> 1.21e-01 sec 0.3% 100.0% 0.0% ------ 199 LAMMPS_NS::NPairKokkosBuildFunctor<Kokkos::Serial, 1, 1, 0> [for]

KOKKOS HOST SPACE:
===================

BOTTOM-UP TIME TREE:
<average time> <percent of total time> <percent time in Kokkos> <percent MPI imbalance> <number of calls> <name> [type]
===================
MAX MEMORY ALLOCATED: 11800.5 kB
ALLOCATIONS AT TIME OF HIGH WATER MARK:
  35.7% Neighbor::d_bins
  9.3% comm:k_buf_recv
  8.7% atom:bonus
  7.7% comm:k_buf_send
  3.3% VerletKokkos::f_merge_copy
  3.3% neigh:xhold
  3.3% neigh:xhold
  3.3% atom:torque
  3.3% atom:angmom
  3.3% atom:f
  3.3% atom:v
  3.3% atom:x
  2.2% Neighbor::d_bincount
  2.0% comm:sendlist_bonus
  2.0% comm:sendlist
  1.2% neighlist:neighbors
  1.1% atom:rmass
  0.5% atom:tag
  0.5% atom:type
  0.5% atom:mask
  0.5% atom:image
  0.5% atom:ellipsoid
  0.5% Neighbor::d_atom2bin
  0.3% atom:map_array
  0.2% atom:sametag

KOKKOS CUDA SPACE:
===================
MAX MEMORY ALLOCATED: 0.0 kB
ALLOCATIONS AT TIME OF HIGH WATER MARK:

KOKKOS HIP SPACE:
===================
MAX MEMORY ALLOCATED: 0.0 kB
ALLOCATIONS AT TIME OF HIGH WATER MARK:

KOKKOS SYCL SPACE:
===================
MAX MEMORY ALLOCATED: 0.0 kB
ALLOCATIONS AT TIME OF HIGH WATER MARK:

KOKKOS OpenMPTarget SPACE:
===================
MAX MEMORY ALLOCATED: 0.0 kB
ALLOCATIONS AT TIME OF HIGH WATER MARK:

|-> 3.55e+00 sec 9.7% 100.0% 0.0% ------ 99980 LAMMPS_NS::PairComputeFunctor<LAMMPS_NS::PairLJCutKokkos<Kokkos::Serial>, 4, true, 0, void> [for]
|-> 2.35e+00 sec 6.4% 100.0% 0.0% ------ 200002 Zero<Kokkos::View<double* [3], Kokkos::LayoutRight, Kokkos::Serial, void> > [for]
|-> 6.11e-01 sec 1.7% 100.0% 0.0% ------ 100000 LAMMPS_NS::FixNVEAsphereKokkosFinalIntegrateFunctor<Kokkos::Serial> [for]
|-> 1.21e-01 sec 0.3% 100.0% 0.0% ------ 199 LAMMPS_NS::NPairKokkosBuildFunctor<Kokkos::Serial, 1, 1, 0> [for]

KOKKOS HOST SPACE:
===================
MAX MEMORY ALLOCATED: 11800.5 kB
ALLOCATIONS AT TIME OF HIGH WATER MARK:
  35.7% Neighbor::d_bins
  9.3% comm:k_buf_recv
  8.7% atom:bonus
  7.7% comm:k_buf_send
  3.3% VerletKokkos::f_merge_copy
  3.3% neigh:xhold
  3.3% neigh:xhold
  3.3% atom:torque
  3.3% atom:angmom
  3.3% atom:f
  3.3% atom:v
  3.3% atom:x
  2.2% Neighbor::d_bincount
  2.0% comm:sendlist_bonus
  2.0% comm:sendlist
  1.2% neighlist:neighbors
  1.1% atom:rmass
  0.5% atom:tag
  0.5% atom:type
  0.5% atom:mask
  0.5% atom:image
  0.5% atom:ellipsoid
  0.5% Neighbor::d_atom2bin
  0.3% atom:map_array
  0.2% atom:sametag

KOKKOS CUDA SPACE:
===================
MAX MEMORY ALLOCATED: 0.0 kB
ALLOCATIONS AT TIME OF HIGH WATER MARK:

KOKKOS HIP SPACE:
===================
MAX MEMORY ALLOCATED: 11801.4 kB
ALLOCATIONS AT TIME OF HIGH WATER MARK:
  35.7% Neighbor::d_bins
  9.3% comm:k_buf_send
  8.7% atom:bonus
  7.7% comm:k_buf_recv
  3.3% VerletKokkos::f_merge_copy
  3.3% neigh:xhold
  3.3% neigh:xhold
  3.3% atom:torque
  3.3% atom:angmom
  3.3% atom:f
  3.3% atom:v
  3.3% atom:x
  2.2% Neighbor::d_bincount
  2.0% comm:sendlist_bonus
  2.0% comm:sendlist
  1.2% neighlist:neighbors
  1.1% atom:rmass
  0.5% atom:tag
  0.5% atom:type
  0.5% atom:mask
  0.5% atom:image
  0.5% atom:ellipsoid
  0.5% Neighbor::d_atom2bin
  0.3% atom:map_array
  0.2% atom:sametag

KOKKOS CUDA SPACE:
===================
MAX MEMORY ALLOCATED: 0.0 kB
ALLOCATIONS AT TIME OF HIGH WATER MARK:

KOKKOS HIP SPACE:
===================
MAX MEMORY ALLOCATED: 0.0 kB
ALLOCATIONS AT TIME OF HIGH WATER MARK:

KOKKOS SYCL SPACE:
===================
MAX MEMORY ALLOCATED: 0.0 kB
ALLOCATIONS AT TIME OF HIGH WATER MARK:

KOKKOS OpenMPTarget SPACE:
===================
MAX MEMORY ALLOCATED: 0.0 kB
ALLOCATIONS AT TIME OF HIGH WATER MARK:

Host process high water mark memory consumption: 43512 kB

END KOKKOS PROFILING REPORT.
MAX MEMORY ALLOCATED: 0.0 kB
ALLOCATIONS AT TIME OF HIGH WATER MARK:

KOKKOS SYCL SPACE:
===================
MAX MEMORY ALLOCATED: 0.0 kB
ALLOCATIONS AT TIME OF HIGH WATER MARK:

KOKKOS OpenMPTarget SPACE:
===================
MAX MEMORY ALLOCATED: 0.0 kB
ALLOCATIONS AT TIME OF HIGH WATER MARK:

Host process high water mark memory consumption: 44032 kB

END KOKKOS PROFILING REPORT.
|-> 1.07e+01 sec 29.3% 100.0% 0.0% ------ 100000 LAMMPS_NS::FixNVEAsphereKokkosInitialIntegrateFunctor<Kokkos::Serial> [for]
|-> 3.58e+00 sec 9.8% 100.0% 0.0% ------ 99980 LAMMPS_NS::PairComputeFunctor<LAMMPS_NS::PairLJCutKokkos<Kokkos::Serial>, 4, true, 0, void> [for]
|-> 2.26e+00 sec 6.2% 100.0% 0.0% ------ 200002 Zero<Kokkos::View<double* [3], Kokkos::LayoutRight, Kokkos::Serial, void> > [for]
|-> 6.32e-01 sec 1.7% 100.0% 0.0% ------ 100000 LAMMPS_NS::FixNVEAsphereKokkosFinalIntegrateFunctor<Kokkos::Serial> [for]
|-> 1.22e-01 sec 0.3% 100.0% 0.0% ------ 199 LAMMPS_NS::NPairKokkosBuildFunctor<Kokkos::Serial, 1, 1, 0> [for]
Host process high water mark memory consumption: 43404 kB

END KOKKOS PROFILING REPORT.

KOKKOS HOST SPACE:
===================
MAX MEMORY ALLOCATED: 11814.9 kB
ALLOCATIONS AT TIME OF HIGH WATER MARK:
  35.7% Neighbor::d_bins
  9.3% comm:k_buf_send
  8.7% atom:bonus
  7.7% comm:k_buf_recv
  3.3% VerletKokkos::f_merge_copy
  3.3% neigh:xhold
  3.3% neigh:xhold
  3.3% atom:torque
  3.3% atom:angmom
  3.3% atom:f
  3.3% atom:v
  3.3% atom:x
  2.2% Neighbor::d_bincount
  2.0% comm:sendlist_bonus
  2.0% comm:sendlist
  1.3% neighlist:neighbors
  1.1% atom:rmass
  0.5% atom:tag
  0.5% atom:type
  0.5% atom:mask
  0.5% atom:image
  0.5% atom:ellipsoid
  0.5% Neighbor::d_atom2bin
  0.3% atom:map_array
  0.2% atom:sametag

KOKKOS CUDA SPACE:
===================
MAX MEMORY ALLOCATED: 0.0 kB
ALLOCATIONS AT TIME OF HIGH WATER MARK:

KOKKOS HIP SPACE:
===================
MAX MEMORY ALLOCATED: 0.0 kB
ALLOCATIONS AT TIME OF HIGH WATER MARK:

KOKKOS SYCL SPACE:
===================
MAX MEMORY ALLOCATED: 0.0 kB
ALLOCATIONS AT TIME OF HIGH WATER MARK:

KOKKOS OpenMPTarget SPACE:
===================
MAX MEMORY ALLOCATED: 0.0 kB
ALLOCATIONS AT TIME OF HIGH WATER MARK:

Host process high water mark memory consumption: 44148 kB

END KOKKOS PROFILING REPORT.
