LAMMPS data file via write_data, version 2 Aug 2023, timestep = 250000, units = lj

10 atoms
1 atom types
5 ellipsoids

3 8 xlo xhi
-4 0 ylo yhi
-7 3 zlo zhi

Atoms # ellipsoid/kk

2 1 0 238.7324039657 3.1587769514044037 -3.9574596012778445 -6.609268057346187 0 0 0
10 1 1 238.7324039657 4.591618644157233 -2.5956487246533455 -5.214849429215887 1 1 2
7 1 1 238.7324039657 6.910938597653955 -3.409484957222434 -6.700513155645578 0 1 0
6 1 1 238.7324039657 6.636102558717422 -2.2945776573906644 -5.42428342647658 0 0 1
8 1 1 238.7324039657 3.3419931928123843 -0.0021077163551293243 -3.7009038361272744 3 0 1
4 1 0 238.7324039657 4.990943787955126 -2.252798739669462 -3.253838246453913 0 0 0
3 1 0 238.7324039657 7.037568739538642 -3.352336764075372 -4.273821540905606 -1 0 0
1 1 0 238.7324039657 7.942844894203384 -0.30123739576931235 -0.6883091362168465 -1 -1 -1
5 1 0 238.7324039657 6.045515615528527 -2.722250215413384 -0.1707452425086049 0 0 0
9 1 1 238.7324039657 4.746691534530468 -3.9938822771051177 2.292176527721199 1 -1 0

Velocities

2 -0.011054553073719763 -0.02395804053244704 -0.051586012698143544 0 0 0
10 0.4247528384788619 -0.09592148288568163 0.25639021389518424 0 0 0
7 -0.10661428774560266 0.14683542252022133 -0.22566786828827906 0 0 0
6 0.03310846225882165 0.12246366764407696 0.32961618992435093 0 0 0
8 0.2636217823505317 0.3486027540433088 0.4755617919469883 0 0 0
4 0.0115902785977512 0.03186154693243801 0.01182294567742976 0 0 0
3 -0.08616478013840964 -0.005027205001354637 0.005468543052094609 0 0 0
1 -0.029930311794340598 -0.027987688170854563 -0.1740225079217771 0 0 0
5 -0.00897535569656668 0.011350706244540954 0.089843539331921 0 0 0
9 0.33650640191967873 -0.41685650566009186 0.06917048689180334 0 0 0

Ellipsoids

10 0.5 1 0.5 0 0.7071067811865476 0 0.7071067811865476
7 0.5 1 0.5 0.9237852583388739 0.3829109511045357 0 0
6 0.5 0.5 1 1 0 0 0
8 1 0.5 0.5 0.9237852583388739 0 0.3829109511045357 0
9 0.5 0.5 1 0.9237852583388739 0 0 0.3829109511045357
