ITEM: TIMESTEP
0
ITEM: NUMBER OF ATOMS
10
ITEM: BOX BOUNDS pp pp pp
3.0000000000000000e+00 8.0000000000000000e+00
-4.0000000000000000e+00 0.0000000000000000e+00
-7.0000000000000000e+00 3.0000000000000000e+00
ITEM: ATOMS id type xs ys zs
1 1 0.134415 0.095131 0.0549478
2 1 0.171846 0.138208 0.159649
3 1 0.225196 0.190333 0.255438
4 1 0.334973 0.241511 0.340428
5 1 0.453194 0.270684 0.433243
6 1 0.499823 0.335817 0.527808
7 1 0.660635 0.425301 0.638206
8 1 0.783337 0.456991 0.750266
9 1 0.79425 0.501516 0.879339
10 1 0.806165 0.577058 0.970839
ITEM: TIMESTEP
1000
ITEM: NUMBER OF ATOMS
10
ITEM: BOX BOUNDS pp pp pp
3.0000000000000000e+00 8.0000000000000000e+00
-4.0000000000000000e+00 0.0000000000000000e+00
-7.0000000000000000e+00 3.0000000000000000e+00
ITEM: ATOMS id type xs ys zs
1 1 0.134392 0.0951043 0.0548828
2 1 0.171776 0.138144 0.159548
3 1 0.225143 0.190355 0.255491
4 1 0.335075 0.241568 0.340507
5 1 0.453149 0.270571 0.433098
6 1 0.500499 0.336762 0.52918
7 1 0.660635 0.425301 0.638206
8 1 0.783337 0.456991 0.750266
9 1 0.793931 0.499497 0.876894
10 1 0.806484 0.579077 0.973284
ITEM: TIMESTEP
2000
ITEM: NUMBER OF ATOMS
10
ITEM: BOX BOUNDS pp pp pp
3.0000000000000000e+00 8.0000000000000000e+00
-4.0000000000000000e+00 0.0000000000000000e+00
-7.0000000000000000e+00 3.0000000000000000e+00
ITEM: ATOMS id type xs ys zs
1 1 0.134322 0.0950238 0.054687
2 1 0.171573 0.137957 0.159252
3 1 0.224981 0.19042 0.255645
4 1 0.335375 0.241738 0.340737
5 1 0.453054 0.270283 0.432737
6 1 0.502256 0.339218 0.532745
7 1 0.660635 0.425301 0.638206
8 1 0.783337 0.456991 0.750266
9 1 0.793263 0.49526 0.871761
10 1 0.807152 0.583314 0.978417
ITEM: TIMESTEP
3000
ITEM: NUMBER OF ATOMS
10
ITEM: BOX BOUNDS pp pp pp
3.0000000000000000e+00 8.0000000000000000e+00
-4.0000000000000000e+00 0.0000000000000000e+00
-7.0000000000000000e+00 3.0000000000000000e+00
ITEM: ATOMS id type xs ys zs
1 1 0.134204 0.0948886 0.054358
2 1 0.171249 0.13766 0.158787
3 1 0.224705 0.190518 0.255886
4 1 0.335855 0.242014 0.341105
5 1 0.452985 0.269912 0.432301
6 1 0.504597 0.342492 0.537497
7 1 0.660635 0.425301 0.638206
8 1 0.783337 0.456991 0.750266
9 1 0.792537 0.49066 0.86619
10 1 0.807878 0.587913 0.983988
ITEM: TIMESTEP
4000
ITEM: NUMBER OF ATOMS
10
ITEM: BOX BOUNDS pp pp pp
3.0000000000000000e+00 8.0000000000000000e+00
-4.0000000000000000e+00 0.0000000000000000e+00
-7.0000000000000000e+00 3.0000000000000000e+00
ITEM: ATOMS id type xs ys zs
1 1 0.134038 0.0946973 0.0538921
2 1 0.170824 0.137271 0.158186
3 1 0.224311 0.190641 0.256194
4 1 0.336486 0.242386 0.341588
5 1 0.453012 0.26954 0.431913
6 1 0.5071 0.345993 0.542578
7 1 0.660635 0.425301 0.638206
8 1 0.783336 0.456988 0.750255
9 1 0.791813 0.486064 0.86063
10 1 0.808603 0.592513 0.989559
ITEM: TIMESTEP
5000
ITEM: NUMBER OF ATOMS
10
ITEM: BOX BOUNDS pp pp pp
3.0000000000000000e+00 8.0000000000000000e+00
-4.0000000000000000e+00 0.0000000000000000e+00
-7.0000000000000000e+00 3.0000000000000000e+00
ITEM: ATOMS id type xs ys zs
1 1 0.133823 0.0944487 0.0532857
2 1 0.170318 0.136809 0.157488
3 1 0.223794 0.190776 0.256546
4 1 0.337231 0.242842 0.342156
5 1 0.453177 0.2692 0.431632
6 1 0.509604 0.349494 0.54766
7 1 0.660635 0.425301 0.638206
8 1 0.783297 0.45686 0.749751
9 1 0.791125 0.481593 0.855562
10 1 0.809329 0.597113 0.995131
ITEM: TIMESTEP
6000
ITEM: NUMBER OF ATOMS
10
ITEM: BOX BOUNDS pp pp pp
3.0000000000000000e+00 8.0000000000000000e+00
-4.0000000000000000e+00 0.0000000000000000e+00
-7.0000000000000000e+00 3.0000000000000000e+00
ITEM: ATOMS id type xs ys zs
1 1 0.133557 0.0941418 0.0525359
2 1 0.169755 0.136297 0.156732
3 1 0.223152 0.190914 0.256924
4 1 0.33805 0.24337 0.342776
5 1 0.453502 0.268896 0.431474
6 1 0.512107 0.352995 0.552741
7 1 0.660635 0.425301 0.638206
8 1 0.783166 0.456439 0.747983
9 1 0.790531 0.477413 0.851759
10 1 0.810054 0.601712 1.0007
ITEM: TIMESTEP
7000
ITEM: NUMBER OF ATOMS
10
ITEM: BOX BOUNDS pp pp pp
3.0000000000000000e+00 8.0000000000000000e+00
-4.0000000000000000e+00 0.0000000000000000e+00
-7.0000000000000000e+00 3.0000000000000000e+00
ITEM: ATOMS id type xs ys zs
1 1 0.133241 0.0937764 0.0516416
2 1 0.169151 0.13575 0.155952
3 1 0.222389 0.191048 0.257312
4 1 0.338898 0.243953 0.343414
5 1 0.454009 0.268632 0.431457
6 1 0.514609 0.356496 0.557822
7 1 0.660636 0.425301 0.638206
8 1 0.782912 0.455671 0.744493
9 1 0.790059 0.473582 0.849678
10 1 0.81078 0.606312 1.00627
ITEM: TIMESTEP
8000
ITEM: NUMBER OF ATOMS
10
ITEM: BOX BOUNDS pp pp pp
3.0000000000000000e+00 8.0000000000000000e+00
-4.0000000000000000e+00 0.0000000000000000e+00
-7.0000000000000000e+00 3.0000000000000000e+00
ITEM: ATOMS id type xs ys zs
1 1 0.132876 0.0933536 0.0506047
2 1 0.168522 0.135184 0.155173
3 1 0.221507 0.191171 0.257699
4 1 0.339734 0.244581 0.344039
5 1 0.454721 0.268412 0.431596
6 1 0.51666 0.359786 0.562659
7 1 0.661088 0.425512 0.638451
8 1 0.782561 0.454656 0.739568
9 1 0.789685 0.469997 0.849031
10 1 0.811505 0.610911 1.01184
ITEM: TIMESTEP
9000
ITEM: NUMBER OF ATOMS
10
ITEM: BOX BOUNDS pp pp pp
3.0000000000000000e+00 8.0000000000000000e+00
-4.0000000000000000e+00 0.0000000000000000e+00
-7.0000000000000000e+00 3.0000000000000000e+00
ITEM: ATOMS id type xs ys zs
1 1 0.132464 0.0928758 0.0494301
2 1 0.16788 0.13461 0.154415
3 1 0.220513 0.191279 0.258077
4 1 0.340523 0.24524 0.344622
5 1 0.455653 0.268238 0.431902
6 1 0.517395 0.36248 0.566808
7 1 0.662856 0.426319 0.639383
8 1 0.782163 0.453538 0.733941
9 1 0.789357 0.466516 0.849087
10 1 0.812231 0.615511 1.01742
ITEM: TIMESTEP
10000
ITEM: NUMBER OF ATOMS
10
ITEM: BOX BOUNDS pp pp pp
3.0000000000000000e+00 8.0000000000000000e+00
-4.0000000000000000e+00 0.0000000000000000e+00
-7.0000000000000000e+00 3.0000000000000000e+00
ITEM: ATOMS id type xs ys zs
1 1 0.132009 0.0923465 0.048126
2 1 0.167232 0.134033 0.153689
3 1 0.219413 0.191371 0.258441
4 1 0.341238 0.245924 0.345143
5 1 0.456813 0.268109 0.432382
6 1 0.516288 0.364366 0.570039
7 1 0.666086 0.42785 0.640938
8 1 0.782142 0.452496 0.72855
9 1 0.789033 0.463042 0.849203
10 1 0.812957 0.620111 1.02299
ITEM: TIMESTEP
11000
ITEM: NUMBER OF ATOMS
10
ITEM: BOX BOUNDS pp pp pp
3.0000000000000000e+00 8.0000000000000000e+00
-4.0000000000000000e+00 0.0000000000000000e+00
-7.0000000000000000e+00 3.0000000000000000e+00
ITEM: ATOMS id type xs ys zs
1 1 0.131514 0.0917705 0.0467036
2 1 0.166583 0.133459 0.153
3 1 0.218213 0.191445 0.258786
4 1 0.341866 0.246627 0.345593
5 1 0.458202 0.268025 0.433034
6 1 0.513361 0.365479 0.572408
7 1 0.669445 0.4298 0.642088
8 1 0.783812 0.451808 0.724425
9 1 0.788709 0.459569 0.849319
10 1 0.813682 0.62471 1.02856
ITEM: TIMESTEP
12000
ITEM: NUMBER OF ATOMS
10
ITEM: BOX BOUNDS pp pp pp
3.0000000000000000e+00 8.0000000000000000e+00
-4.0000000000000000e+00 0.0000000000000000e+00
-7.0000000000000000e+00 3.0000000000000000e+00
ITEM: ATOMS id type xs ys zs
1 1 0.130984 0.0911531 0.0451759
2 1 0.165934 0.132888 0.152347
3 1 0.216921 0.191501 0.259111
4 1 0.342405 0.247347 0.345969
5 1 0.459806 0.267979 0.433848
6 1 0.508933 0.365973 0.574106
7 1 0.670909 0.431722 0.641472
8 1 0.788877 0.451768 0.722738
9 1 0.788385 0.456095 0.849434
10 1 0.814408 0.62931 1.03413
ITEM: TIMESTEP
13000
ITEM: NUMBER OF ATOMS
10
ITEM: BOX BOUNDS pp pp pp
3.0000000000000000e+00 8.0000000000000000e+00
-4.0000000000000000e+00 0.0000000000000000e+00
-7.0000000000000000e+00 3.0000000000000000e+00
ITEM: ATOMS id type xs ys zs
1 1 0.130424 0.0905002 0.0435569
2 1 0.165301 0.132335 0.151754
3 1 0.215528 0.191522 0.259388
4 1 0.342863 0.248084 0.346278
5 1 0.461606 0.267969 0.434809
6 1 0.503161 0.365921 0.575245
7 1 0.670284 0.433601 0.63904
8 1 0.797376 0.452316 0.723425
9 1 0.788061 0.452622 0.84955
10 1 0.815133 0.63391 1.0397
ITEM: TIMESTEP
14000
ITEM: NUMBER OF ATOMS
10
ITEM: BOX BOUNDS pp pp pp
3.0000000000000000e+00 8.0000000000000000e+00
-4.0000000000000000e+00 0.0000000000000000e+00
-7.0000000000000000e+00 3.0000000000000000e+00
ITEM: ATOMS id type xs ys zs
1 1 0.12984 0.0898176 0.0418612
2 1 0.164692 0.131812 0.151238
3 1 0.214031 0.191496 0.259593
4 1 0.343255 0.248839 0.346532
5 1 0.463577 0.267987 0.435897
6 1 0.496028 0.365317 0.575864
7 1 0.669286 0.43577 0.635971
8 1 0.807609 0.453126 0.725269
9 1 0.787737 0.449148 0.849666
10 1 0.815859 0.638509 1.04527
ITEM: TIMESTEP
15000
ITEM: NUMBER OF ATOMS
10
ITEM: BOX BOUNDS pp pp pp
3.0000000000000000e+00 8.0000000000000000e+00
-4.0000000000000000e+00 0.0000000000000000e+00
-7.0000000000000000e+00 3.0000000000000000e+00
ITEM: ATOMS id type xs ys zs
1 1 0.129241 0.0891183 0.040122
2 1 0.164098 0.131306 0.150765
3 1 0.21244 0.191429 0.259735
4 1 0.343598 0.249612 0.346743
5 1 0.46569 0.268027 0.437091
6 1 0.487638 0.364202 0.576047
7 1 0.669214 0.438405 0.633122
8 1 0.818172 0.453981 0.727331
9 1 0.787413 0.445674 0.849781
10 1 0.816584 0.643109 1.05084
ITEM: TIMESTEP
16000
ITEM: NUMBER OF ATOMS
10
ITEM: BOX BOUNDS pp pp pp
3.0000000000000000e+00 8.0000000000000000e+00
-4.0000000000000000e+00 0.0000000000000000e+00
-7.0000000000000000e+00 3.0000000000000000e+00
ITEM: ATOMS id type xs ys zs
1 1 0.128643 0.0884186 0.0383818
2 1 0.163503 0.130801 0.150294
3 1 0.210764 0.191325 0.259821
4 1 0.34391 0.250405 0.346923
5 1 0.467919 0.268086 0.43837
6 1 0.478498 0.362781 0.575988
7 1 0.669893 0.441347 0.630514
8 1 0.828736 0.454836 0.729392
9 1 0.787088 0.442201 0.849897
10 1 0.81731 0.647708 1.05641
ITEM: TIMESTEP
17000
ITEM: NUMBER OF ATOMS
10
ITEM: BOX BOUNDS pp pp pp
3.0000000000000000e+00 8.0000000000000000e+00
-4.0000000000000000e+00 0.0000000000000000e+00
-7.0000000000000000e+00 3.0000000000000000e+00
ITEM: ATOMS id type xs ys zs
1 1 0.128044 0.0877189 0.0366415
2 1 0.162909 0.130295 0.149822
3 1 0.209042 0.191199 0.259876
4 1 0.344178 0.251207 0.347069
5 1 0.470239 0.268157 0.439716
6 1 0.469316 0.361342 0.575916
7 1 0.670613 0.444305 0.627919
8 1 0.839299 0.455691 0.731453
9 1 0.786764 0.438727 0.850013
10 1 0.818035 0.652308 1.06199
ITEM: TIMESTEP
18000
ITEM: NUMBER OF ATOMS
10
ITEM: BOX BOUNDS pp pp pp
3.0000000000000000e+00 8.0000000000000000e+00
-4.0000000000000000e+00 0.0000000000000000e+00
-7.0000000000000000e+00 3.0000000000000000e+00
ITEM: ATOMS id type xs ys zs
1 1 0.127446 0.0870192 0.0349013
2 1 0.162314 0.129789 0.149351
3 1 0.207318 0.191074 0.259931
4 1 0.34441 0.252003 0.347187
5 1 0.472596 0.268233 0.44109
6 1 0.460134 0.359904 0.575845
7 1 0.671333 0.447264 0.625324
8 1 0.849863 0.456546 0.733514
9 1 0.78644 0.435254 0.850128
10 1 0.818761 0.656908 1.06756
ITEM: TIMESTEP
19000
ITEM: NUMBER OF ATOMS
10
ITEM: BOX BOUNDS pp pp pp
3.0000000000000000e+00 8.0000000000000000e+00
-4.0000000000000000e+00 0.0000000000000000e+00
-7.0000000000000000e+00 3.0000000000000000e+00
ITEM: ATOMS id type xs ys zs
1 1 0.126847 0.0863196 0.0331611
2 1 0.16172 0.129283 0.148879
3 1 0.205595 0.190948 0.259986
4 1 0.344642 0.2528 0.347305
5 1 0.474953 0.268309 0.442464
6 1 0.450952 0.358466 0.575773
7 1 0.672052 0.450222 0.622729
8 1 0.860426 0.457401 0.735575
9 1 0.786116 0.43178 0.850244
10 1 0.819486 0.661507 1.07313
ITEM: TIMESTEP
20000
ITEM: NUMBER OF ATOMS
10
ITEM: BOX BOUNDS pp pp pp
3.0000000000000000e+00 8.0000000000000000e+00
-4.0000000000000000e+00 0.0000000000000000e+00
-7.0000000000000000e+00 3.0000000000000000e+00
ITEM: ATOMS id type xs ys zs
1 1 0.126248 0.0856199 0.0314209
2 1 0.161125 0.128778 0.148408
3 1 0.203872 0.190822 0.26004
4 1 0.344873 0.253596 0.347423
5 1 0.47731 0.268385 0.443838
6 1 0.441771 0.357028 0.575702
7 1 0.672772 0.453181 0.620134
8 1 0.87099 0.458256 0.737636
9 1 0.785792 0.428306 0.85036
10 1 0.820212 0.666107 1.0787
ITEM: TIMESTEP
21000
ITEM: NUMBER OF ATOMS
10
ITEM: BOX BOUNDS pp pp pp
3.0000000000000000e+00 8.0000000000000000e+00
-4.0000000000000000e+00 0.0000000000000000e+00
-7.0000000000000000e+00 3.0000000000000000e+00
ITEM: ATOMS id type xs ys zs
1 1 0.12565 0.0849202 0.0296806
2 1 0.160531 0.128272 0.147936
3 1 0.202148 0.190697 0.260095
4 1 0.345105 0.254393 0.347542
5 1 0.479667 0.268462 0.445211
6 1 0.432589 0.355589 0.57563
7 1 0.673492 0.456139 0.617539
8 1 0.881553 0.459111 0.739697
9 1 0.785468 0.424833 0.850475
10 1 0.820937 0.670706 1.08427
ITEM: TIMESTEP
22000
ITEM: NUMBER OF ATOMS
10
ITEM: BOX BOUNDS pp pp pp
3.0000000000000000e+00 8.0000000000000000e+00
-4.0000000000000000e+00 0.0000000000000000e+00
-7.0000000000000000e+00 3.0000000000000000e+00
ITEM: ATOMS id type xs ys zs
1 1 0.125051 0.0842205 0.0279404
2 1 0.159936 0.127766 0.147464
3 1 0.200425 0.190571 0.26015
4 1 0.345337 0.255189 0.34766
5 1 0.482023 0.268538 0.446585
6 1 0.423407 0.354151 0.575559
7 1 0.674212 0.459098 0.614944
8 1 0.892117 0.459965 0.741758
9 1 0.785144 0.421359 0.850591
10 1 0.821663 0.675306 1.08984
ITEM: TIMESTEP
23000
ITEM: NUMBER OF ATOMS
10
ITEM: BOX BOUNDS pp pp pp
3.0000000000000000e+00 8.0000000000000000e+00
-4.0000000000000000e+00 0.0000000000000000e+00
-7.0000000000000000e+00 3.0000000000000000e+00
ITEM: ATOMS id type xs ys zs
1 1 0.124453 0.0835208 0.0262002
2 1 0.159342 0.127261 0.146993
3 1 0.198702 0.190445 0.260204
4 1 0.345569 0.255986 0.347778
5 1 0.48438 0.268614 0.447959
6 1 0.414225 0.352713 0.575487
7 1 0.674932 0.462056 0.612349
8 1 0.90268 0.46082 0.743819
9 1 0.784819 0.417886 0.850707
10 1 0.822388 0.679906 1.09541
ITEM: TIMESTEP
24000
ITEM: NUMBER OF ATOMS
10
ITEM: BOX BOUNDS pp pp pp
3.0000000000000000e+00 8.0000000000000000e+00
-4.0000000000000000e+00 0.0000000000000000e+00
-7.0000000000000000e+00 3.0000000000000000e+00
ITEM: ATOMS id type xs ys zs
1 1 0.123854 0.0828211 0.02446
2 1 0.158748 0.126755 0.146521
3 1 0.196979 0.19032 0.260259
4 1 0.345801 0.256783 0.347896
5 1 0.486737 0.26869 0.449332
6 1 0.405043 0.351274 0.575416
7 1 0.675652 0.465015 0.609754
8 1 0.913244 0.461675 0.74588
9 1 0.784495 0.414412 0.850822
10 1 0.823114 0.684505 1.10099
ITEM: TIMESTEP
25000
ITEM: NUMBER OF ATOMS
10
ITEM: BOX BOUNDS pp pp pp
3.0000000000000000e+00 8.0000000000000000e+00
-4.0000000000000000e+00 0.0000000000000000e+00
-7.0000000000000000e+00 3.0000000000000000e+00
ITEM: ATOMS id type xs ys zs
1 1 0.123255 0.0821214 0.0227197
2 1 0.158153 0.126249 0.14605
3 1 0.195255 0.190194 0.260314
4 1 0.346033 0.257579 0.348015
5 1 0.489094 0.268767 0.450706
6 1 0.395862 0.349836 0.575344
7 1 0.676372 0.467973 0.607159
8 1 0.923808 0.46253 0.747942
9 1 0.784171 0.410938 0.850938
10 1 0.82384 0.689105 1.10656
ITEM: TIMESTEP
26000
ITEM: NUMBER OF ATOMS
10
ITEM: BOX BOUNDS pp pp pp
3.0000000000000000e+00 8.0000000000000000e+00
-4.0000000000000000e+00 0.0000000000000000e+00
-7.0000000000000000e+00 3.0000000000000000e+00
ITEM: ATOMS id type xs ys zs
1 1 0.122657 0.0814217 0.0209795
2 1 0.157559 0.125744 0.145578
3 1 0.193532 0.190068 0.260368
4 1 0.346264 0.258376 0.348133
5 1 0.491451 0.268843 0.45208
6 1 0.38668 0.348398 0.575273
7 1 0.677092 0.470932 0.604563
8 1 0.934371 0.463385 0.750003
9 1 0.783847 0.407465 0.851054
10 1 0.824565 0.693704 1.11213
ITEM: TIMESTEP
27000
ITEM: NUMBER OF ATOMS
10
ITEM: BOX BOUNDS pp pp pp
3.0000000000000000e+00 8.0000000000000000e+00
-4.0000000000000000e+00 0.0000000000000000e+00
-7.0000000000000000e+00 3.0000000000000000e+00
ITEM: ATOMS id type xs ys zs
1 1 0.122058 0.080722 0.0192393
2 1 0.156964 0.125238 0.145107
10 1 0.825291 0.698304 0.117699
3 1 0.191809 0.189942 0.260423
4 1 0.346496 0.259172 0.348251
5 1 0.493808 0.268919 0.453454
6 1 0.377498 0.34696 0.575201
7 1 0.677812 0.47389 0.601968
8 1 0.944935 0.46424 0.752064
9 1 0.783523 0.403991 0.851169
ITEM: TIMESTEP
28000
ITEM: NUMBER OF ATOMS
10
ITEM: BOX BOUNDS pp pp pp
3.0000000000000000e+00 8.0000000000000000e+00
-4.0000000000000000e+00 0.0000000000000000e+00
-7.0000000000000000e+00 3.0000000000000000e+00
ITEM: ATOMS id type xs ys zs
1 1 0.12146 0.0800223 0.0174991
2 1 0.15637 0.124732 0.144635
10 1 0.826016 0.702904 0.12327
3 1 0.190085 0.189817 0.260478
4 1 0.346728 0.259969 0.348369
5 1 0.496165 0.268995 0.454827
6 1 0.368316 0.345521 0.57513
7 1 0.678531 0.476849 0.599373
8 1 0.955498 0.465095 0.754125
9 1 0.783199 0.400518 0.851285
ITEM: TIMESTEP
29000
ITEM: NUMBER OF ATOMS
10
ITEM: BOX BOUNDS pp pp pp
3.0000000000000000e+00 8.0000000000000000e+00
-4.0000000000000000e+00 0.0000000000000000e+00
-7.0000000000000000e+00 3.0000000000000000e+00
ITEM: ATOMS id type xs ys zs
1 1 0.120861 0.0793226 0.0157588
2 1 0.155775 0.124226 0.144164
10 1 0.826742 0.707503 0.128842
3 1 0.188362 0.189691 0.260532
4 1 0.34696 0.260765 0.348487
5 1 0.498522 0.269072 0.456201
6 1 0.359135 0.344083 0.575058
7 1 0.679251 0.479807 0.596778
8 1 0.966062 0.46595 0.756186
9 1 0.782875 0.397044 0.8514
ITEM: TIMESTEP
30000
ITEM: NUMBER OF ATOMS
10
ITEM: BOX BOUNDS pp pp pp
3.0000000000000000e+00 8.0000000000000000e+00
-4.0000000000000000e+00 0.0000000000000000e+00
-7.0000000000000000e+00 3.0000000000000000e+00
ITEM: ATOMS id type xs ys zs
1 1 0.120262 0.0786229 0.0140186
2 1 0.155181 0.123721 0.143692
10 1 0.827467 0.712103 0.134413
3 1 0.186639 0.189565 0.260587
4 1 0.347192 0.261562 0.348606
5 1 0.500878 0.269148 0.457575
6 1 0.349953 0.342645 0.574987
7 1 0.679971 0.482766 0.594183
8 1 0.976625 0.466805 0.758247
9 1 0.782551 0.39357 0.851516
ITEM: TIMESTEP
31000
ITEM: NUMBER OF ATOMS
10
ITEM: BOX BOUNDS pp pp pp
3.0000000000000000e+00 8.0000000000000000e+00
-4.0000000000000000e+00 0.0000000000000000e+00
-7.0000000000000000e+00 3.0000000000000000e+00
ITEM: ATOMS id type xs ys zs
1 1 0.119664 0.0779232 0.0122784
2 1 0.154587 0.123215 0.14322
10 1 0.828193 0.716702 0.139984
3 1 0.184915 0.18944 0.260642
4 1 0.347423 0.262358 0.348724
5 1 0.503235 0.269224 0.458948
6 1 0.340771 0.341207 0.574915
7 1 0.680691 0.485724 0.591588
8 1 0.987189 0.467659 0.760308
9 1 0.782226 0.390097 0.851632
ITEM: TIMESTEP
32000
ITEM: NUMBER OF ATOMS
10
ITEM: BOX BOUNDS pp pp pp
3.0000000000000000e+00 8.0000000000000000e+00
-4.0000000000000000e+00 0.0000000000000000e+00
-7.0000000000000000e+00 3.0000000000000000e+00
ITEM: ATOMS id type xs ys zs
1 1 0.119065 0.0772236 0.0105382
2 1 0.153992 0.122709 0.142749
10 1 0.828918 0.721302 0.145555
3 1 0.183192 0.189314 0.260696
4 1 0.347655 0.263155 0.348842
5 1 0.505592 0.2693 0.460322
6 1 0.331589 0.339768 0.574844
7 1 0.681411 0.488683 0.588993
8 1 0.997752 0.468514 0.762369
9 1 0.781902 0.386623 0.851747
ITEM: TIMESTEP
33000
ITEM: NUMBER OF ATOMS
10
ITEM: BOX BOUNDS pp pp pp
3.0000000000000000e+00 8.0000000000000000e+00
-4.0000000000000000e+00 0.0000000000000000e+00
-7.0000000000000000e+00 3.0000000000000000e+00
ITEM: ATOMS id type xs ys zs
1 1 0.118467 0.0765239 0.00879793
2 1 0.153398 0.122204 0.142277
10 1 0.829644 0.725902 0.151127
3 1 0.181469 0.189188 0.260751
4 1 0.347887 0.263951 0.34896
5 1 0.507949 0.269376 0.461696
6 1 0.322408 0.33833 0.574772
7 1 0.682131 0.491641 0.586398
8 1 1.00832 0.469369 0.76443
9 1 0.781578 0.38315 0.851863
ITEM: TIMESTEP
34000
ITEM: NUMBER OF ATOMS
10
ITEM: BOX BOUNDS pp pp pp
3.0000000000000000e+00 8.0000000000000000e+00
-4.0000000000000000e+00 0.0000000000000000e+00
-7.0000000000000000e+00 3.0000000000000000e+00
ITEM: ATOMS id type xs ys zs
1 1 0.117868 0.0758242 0.0070577
2 1 0.152803 0.121698 0.141806
10 1 0.830369 0.730501 0.156698
3 1 0.179746 0.189063 0.260806
4 1 0.348119 0.264748 0.349079
5 1 0.510306 0.269453 0.46307
6 1 0.313226 0.336892 0.574701
7 1 0.682851 0.4946 0.583803
8 1 1.01888 0.470224 0.766491
9 1 0.781254 0.379676 0.851979
ITEM: TIMESTEP
35000
ITEM: NUMBER OF ATOMS
10
ITEM: BOX BOUNDS pp pp pp
3.0000000000000000e+00 8.0000000000000000e+00
-4.0000000000000000e+00 0.0000000000000000e+00
-7.0000000000000000e+00 3.0000000000000000e+00
ITEM: ATOMS id type xs ys zs
1 1 0.117269 0.0751245 0.00531748
2 1 0.152209 0.121192 0.141334
10 1 0.831095 0.735101 0.162269
3 1 0.178022 0.188937 0.26086
4 1 0.348351 0.265545 0.349197
5 1 0.512663 0.269529 0.464443
6 1 0.304044 0.335454 0.574629
7 1 0.683571 0.497558 0.581208
8 1 1.02944 0.471079 0.768552
9 1 0.78093 0.376202 0.852094
ITEM: TIMESTEP
36000
ITEM: NUMBER OF ATOMS
10
ITEM: BOX BOUNDS pp pp pp
3.0000000000000000e+00 8.0000000000000000e+00
-4.0000000000000000e+00 0.0000000000000000e+00
-7.0000000000000000e+00 3.0000000000000000e+00
ITEM: ATOMS id type xs ys zs
1 1 0.116671 0.0744248 0.00357725
2 1 0.151614 0.120687 0.140863
10 1 0.83182 0.739701 0.167841
3 1 0.176299 0.188811 0.260915
4 1 0.348582 0.266341 0.349315
5 1 0.51502 0.269605 0.465817
6 1 0.294862 0.334015 0.574558
7 1 0.684291 0.500517 0.578613
8 1 1.04001 0.471934 0.770614
9 1 0.780606 0.372729 0.85221
ITEM: TIMESTEP
37000
ITEM: NUMBER OF ATOMS
10
ITEM: BOX BOUNDS pp pp pp
3.0000000000000000e+00 8.0000000000000000e+00
-4.0000000000000000e+00 0.0000000000000000e+00
-7.0000000000000000e+00 3.0000000000000000e+00
ITEM: ATOMS id type xs ys zs
1 1 0.116072 0.0737251 0.00183703
2 1 0.15102 0.120181 0.140391
10 1 0.832546 0.7443 0.173412
3 1 0.174576 0.188686 0.26097
4 1 0.348814 0.267138 0.349433
5 1 0.517377 0.269681 0.467191
6 1 0.285681 0.332577 0.574486
7 1 0.685011 0.503475 0.576018
8 1 1.05057 0.472789 0.772675
9 1 0.780282 0.369255 0.852326
ITEM: TIMESTEP
38000
ITEM: NUMBER OF ATOMS
10
ITEM: BOX BOUNDS pp pp pp
3.0000000000000000e+00 8.0000000000000000e+00
-4.0000000000000000e+00 0.0000000000000000e+00
-7.0000000000000000e+00 3.0000000000000000e+00
ITEM: ATOMS id type xs ys zs
1 1 0.115474 0.0730254 9.68032e-05
2 1 0.150425 0.119675 0.139919
10 1 0.833271 0.7489 0.178983
3 1 0.172852 0.18856 0.261025
4 1 0.349046 0.267934 0.349552
5 1 0.519734 0.269758 0.468564
6 1 0.276499 0.331139 0.574415
7 1 0.68573 0.506434 0.573423
8 1 1.06113 0.473644 0.774736
9 1 0.779958 0.365782 0.852441
ITEM: TIMESTEP
39000
ITEM: NUMBER OF ATOMS
10
ITEM: BOX BOUNDS pp pp pp
3.0000000000000000e+00 8.0000000000000000e+00
-4.0000000000000000e+00 0.0000000000000000e+00
-7.0000000000000000e+00 3.0000000000000000e+00
ITEM: ATOMS id type xs ys zs
1 1 0.114875 0.0723257 -0.00164342
2 1 0.149831 0.119169 0.139448
10 1 0.833997 0.753499 0.184554
3 1 0.171129 0.188434 0.261079
4 1 0.349278 0.268731 0.34967
5 1 0.52209 0.269834 0.469938
6 1 0.267317 0.329701 0.574343
7 1 0.68645 0.509392 0.570828
8 1 1.0717 0.474499 0.776797
9 1 0.779633 0.362308 0.852557
ITEM: TIMESTEP
40000
ITEM: NUMBER OF ATOMS
10
ITEM: BOX BOUNDS pp pp pp
3.0000000000000000e+00 8.0000000000000000e+00
-4.0000000000000000e+00 0.0000000000000000e+00
-7.0000000000000000e+00 3.0000000000000000e+00
ITEM: ATOMS id type xs ys zs
1 1 0.114276 0.071626 -0.00338365
2 1 0.149237 0.118664 0.138976
10 1 0.834723 0.758099 0.190126
3 1 0.169406 0.188309 0.261134
4 1 0.34951 0.269527 0.349788
5 1 0.524447 0.26991 0.471312
6 1 0.258135 0.328262 0.574272
7 1 0.68717 0.512351 0.568232
8 1 1.08226 0.475354 0.778858
9 1 0.779309 0.358834 0.852673
ITEM: TIMESTEP
41000
ITEM: NUMBER OF ATOMS
10
ITEM: BOX BOUNDS pp pp pp
3.0000000000000000e+00 8.0000000000000000e+00
-4.0000000000000000e+00 0.0000000000000000e+00
-7.0000000000000000e+00 3.0000000000000000e+00
ITEM: ATOMS id type xs ys zs
1 1 0.113678 0.0709263 -0.00512387
2 1 0.148642 0.118158 0.138505
10 1 0.835448 0.762699 0.195697
3 1 0.167683 0.188183 0.261189
4 1 0.349741 0.270324 0.349906
5 1 0.526804 0.269986 0.472686
6 1 0.248954 0.326824 0.5742
7 1 0.68789 0.515309 0.565637
8 1 1.09282 0.476208 0.780919
9 1 0.778985 0.355361 0.852788
ITEM: TIMESTEP
42000
ITEM: NUMBER OF ATOMS
10
ITEM: BOX BOUNDS pp pp pp
3.0000000000000000e+00 8.0000000000000000e+00
-4.0000000000000000e+00 0.0000000000000000e+00
-7.0000000000000000e+00 3.0000000000000000e+00
ITEM: ATOMS id type xs ys zs
1 1 0.113079 0.0702266 -0.0068641
2 1 0.148048 0.117652 0.138033
10 1 0.836174 0.767298 0.201268
3 1 0.165959 0.188057 0.261243
4 1 0.349973 0.27112 0.350024
5 1 0.529161 0.270063 0.474059
6 1 0.239772 0.325386 0.574129
7 1 0.68861 0.518268 0.563042
8 1 1.10339 0.477063 0.78298
9 1 0.778661 0.351887 0.852904
ITEM: TIMESTEP
43000
ITEM: NUMBER OF ATOMS
10
ITEM: BOX BOUNDS pp pp pp
3.0000000000000000e+00 8.0000000000000000e+00
-4.0000000000000000e+00 0.0000000000000000e+00
-7.0000000000000000e+00 3.0000000000000000e+00
ITEM: ATOMS id type xs ys zs
1 1 0.11248 0.0695269 -0.00860432
2 1 0.147453 0.117147 0.137562
10 1 0.836899 0.771898 0.20684
3 1 0.164236 0.187932 0.261298
4 1 0.350205 0.271917 0.350143
5 1 0.531518 0.270139 0.475433
6 1 0.23059 0.323948 0.574057
7 1 0.68933 0.521226 0.560447
8 1 1.11395 0.477918 0.785041
9 1 0.778337 0.348414 0.85302
ITEM: TIMESTEP
44000
ITEM: NUMBER OF ATOMS
10
ITEM: BOX BOUNDS pp pp pp
3.0000000000000000e+00 8.0000000000000000e+00
-4.0000000000000000e+00 0.0000000000000000e+00
-7.0000000000000000e+00 3.0000000000000000e+00
ITEM: ATOMS id type xs ys zs
1 1 0.111882 0.0688272 -0.0103445
2 1 0.146859 0.116641 0.13709
10 1 0.837625 0.776497 0.212411
3 1 0.162513 0.187806 0.261353
4 1 0.350437 0.272713 0.350261
5 1 0.533875 0.270215 0.476807
6 1 0.221408 0.322509 0.573986
7 1 0.69005 0.524185 0.557852
8 1 1.12452 0.478773 0.787102
9 1 0.778013 0.34494 0.853135
ITEM: TIMESTEP
45000
ITEM: NUMBER OF ATOMS
10
ITEM: BOX BOUNDS pp pp pp
3.0000000000000000e+00 8.0000000000000000e+00
-4.0000000000000000e+00 0.0000000000000000e+00
-7.0000000000000000e+00 3.0000000000000000e+00
ITEM: ATOMS id type xs ys zs
1 1 0.111283 0.0681276 -0.0120848
2 1 0.146264 0.116135 0.136619
10 1 0.83835 0.781097 0.217982
3 1 0.160789 0.18768 0.261407
4 1 0.350669 0.27351 0.350379
5 1 0.536232 0.270291 0.47818
6 1 0.212227 0.321071 0.573914
7 1 0.69077 0.527143 0.555257
8 1 1.13508 0.479628 0.789163
9 1 0.777689 0.341466 0.853251
ITEM: TIMESTEP
46000
ITEM: NUMBER OF ATOMS
10
ITEM: BOX BOUNDS pp pp pp
3.0000000000000000e+00 8.0000000000000000e+00
-4.0000000000000000e+00 0.0000000000000000e+00
-7.0000000000000000e+00 3.0000000000000000e+00
ITEM: ATOMS id type xs ys zs
1 1 0.110685 0.0674279 -0.013825
2 1 0.14567 0.11563 0.136147
10 1 0.839076 0.785697 0.223553
3 1 0.159066 0.187555 0.261462
4 1 0.3509 0.274306 0.350497
5 1 0.538589 0.270368 0.479554
6 1 0.203045 0.319633 0.573843
7 1 0.69149 0.530102 0.552662
8 1 1.14564 0.480483 0.791225
9 1 0.777364 0.337993 0.853367
ITEM: TIMESTEP
47000
ITEM: NUMBER OF ATOMS
10
ITEM: BOX BOUNDS pp pp pp
3.0000000000000000e+00 8.0000000000000000e+00
-4.0000000000000000e+00 0.0000000000000000e+00
-7.0000000000000000e+00 3.0000000000000000e+00
ITEM: ATOMS id type xs ys zs
1 1 0.110086 0.0667282 -0.0155652
2 1 0.145075 0.115124 0.135675
10 1 0.839801 0.790296 0.229125
3 1 0.157343 0.187429 0.261517
4 1 0.351132 0.275103 0.350616
5 1 0.540945 0.270444 0.480928
6 1 0.193863 0.318195 0.573771
7 1 0.69221 0.53306 0.550067
8 1 1.15621 0.481338 0.793286
9 1 0.77704 0.334519 0.853482
ITEM: TIMESTEP
48000
ITEM: NUMBER OF ATOMS
10
ITEM: BOX BOUNDS pp pp pp
3.0000000000000000e+00 8.0000000000000000e+00
-4.0000000000000000e+00 0.0000000000000000e+00
-7.0000000000000000e+00 3.0000000000000000e+00
ITEM: ATOMS id type xs ys zs
1 1 0.109487 0.0660285 -0.0173054
2 1 0.144481 0.114618 0.135204
10 1 0.840527 0.794896 0.234696
3 1 0.155619 0.187303 0.261571
4 1 0.351364 0.2759 0.350734
5 1 0.543302 0.27052 0.482302
6 1 0.184681 0.316756 0.5737
7 1 0.692929 0.536019 0.547472
8 1 1.16677 0.482193 0.795347
9 1 0.776716 0.331046 0.853598
ITEM: TIMESTEP
49000
ITEM: NUMBER OF ATOMS
10
ITEM: BOX BOUNDS pp pp pp
3.0000000000000000e+00 8.0000000000000000e+00
-4.0000000000000000e+00 0.0000000000000000e+00
-7.0000000000000000e+00 3.0000000000000000e+00
ITEM: ATOMS id type xs ys zs
1 1 0.108889 0.0653288 -0.0190457
2 1 0.143887 0.114112 0.134732
10 1 0.841252 0.799495 0.240267
3 1 0.153896 0.187178 0.261626
4 1 0.351596 0.276696 0.350852
5 1 0.545659 0.270596 0.483675
6 1 0.1755 0.315318 0.573628
7 1 0.693649 0.538977 0.544877
8 1 1.17733 0.483048 0.797408
9 1 0.776392 0.327572 0.853714
ITEM: TIMESTEP
50000
ITEM: NUMBER OF ATOMS
10
ITEM: BOX BOUNDS pp pp pp
3.0000000000000000e+00 8.0000000000000000e+00
-4.0000000000000000e+00 0.0000000000000000e+00
-7.0000000000000000e+00 3.0000000000000000e+00
ITEM: ATOMS id type xs ys zs
1 1 0.10829 0.0646291 -0.0207859
2 1 0.143292 0.113607 0.134261
10 1 0.841978 0.804095 0.245839
3 1 0.152173 0.187052 0.261681
4 1 0.351828 0.277493 0.35097
5 1 0.548016 0.270672 0.485049
6 1 0.166318 0.31388 0.573557
7 1 0.694369 0.541936 0.542282
8 1 1.1879 0.483902 0.799469
9 1 0.776068 0.324098 0.853829
ITEM: TIMESTEP
51000
ITEM: NUMBER OF ATOMS
10
ITEM: BOX BOUNDS pp pp pp
3.0000000000000000e+00 8.0000000000000000e+00
-4.0000000000000000e+00 0.0000000000000000e+00
-7.0000000000000000e+00 3.0000000000000000e+00
ITEM: ATOMS id type xs ys zs
1 1 0.107692 0.0639294 -0.0225261
2 1 0.142698 0.113101 0.133789
10 1 0.842703 0.808695 0.25141
3 1 0.15045 0.186926 0.261735
4 1 0.352059 0.278289 0.351089
5 1 0.550373 0.270749 0.486423
6 1 0.157136 0.312442 0.573485
7 1 0.695089 0.544894 0.539687
8 1 1.19846 0.484757 0.80153
9 1 0.775744 0.320625 0.853945
ITEM: TIMESTEP
52000
ITEM: NUMBER OF ATOMS
10
ITEM: BOX BOUNDS pp pp pp
3.0000000000000000e+00 8.0000000000000000e+00
-4.0000000000000000e+00 0.0000000000000000e+00
-7.0000000000000000e+00 3.0000000000000000e+00
ITEM: ATOMS id type xs ys zs
2 1 0.142103 0.112595 0.133318
3 1 0.148726 0.1868 0.26179
4 1 0.352291 0.279086 0.351207
10 1 0.843429 0.813294 0.256981
5 1 0.55273 0.270825 0.487796
6 1 0.147954 0.311003 0.573414
7 1 0.695809 0.547853 0.537092
1 1 0.107093 0.0632297 0.975734
8 1 0.209023 0.485612 0.803591
9 1 0.77542 0.317151 0.854061
ITEM: TIMESTEP
53000
ITEM: NUMBER OF ATOMS
10
ITEM: BOX BOUNDS pp pp pp
3.0000000000000000e+00 8.0000000000000000e+00
-4.0000000000000000e+00 0.0000000000000000e+00
-7.0000000000000000e+00 3.0000000000000000e+00
ITEM: ATOMS id type xs ys zs
2 1 0.141509 0.11209 0.132846
3 1 0.147003 0.186675 0.261845
4 1 0.352523 0.279882 0.351325
10 1 0.844154 0.817894 0.262552
5 1 0.555087 0.270901 0.48917
6 1 0.138773 0.309565 0.573342
7 1 0.696529 0.550811 0.534497
1 1 0.106494 0.06253 0.973993
8 1 0.219587 0.486467 0.805652
9 1 0.775096 0.313678 0.854176
ITEM: TIMESTEP
54000
ITEM: NUMBER OF ATOMS
10
ITEM: BOX BOUNDS pp pp pp
3.0000000000000000e+00 8.0000000000000000e+00
-4.0000000000000000e+00 0.0000000000000000e+00
-7.0000000000000000e+00 3.0000000000000000e+00
ITEM: ATOMS id type xs ys zs
2 1 0.140914 0.111584 0.132374