LAMMPS data file via write_data, version 2 Aug 2023, timestep = 250000, units = lj

499 atoms
1 atom types
498 bonds
1 bond types
249 ellipsoids

-50 50 xlo xhi
-50 50 ylo yhi
-50 50 zlo zhi

Masses

1 1

Atoms # hybrid

230 1 -16.186773796191083 0.3606676885378219 -15.11757831279646 1 0 238.7324039657 0 0 0
231 1 -15.513349281407805 0.27281038967679455 -14.461845269399893 1 0 238.7324039657 0 0 0
232 1 -15.602700288585362 1.1666957081188296 -14.933156625085852 1 0 238.7324039657 0 0 0
233 1 -15.010476017083898 1.8821400428515775 -15.218514170574954 1 0 238.7324039657 0 0 0
228 1 -16.182962139769483 -0.6992613032245004 -13.75520876275861 1 0 238.7324039657 0 0 0
227 1 -15.724025340160006 -0.6344429462932916 -13.004992176248225 1 0 238.7324039657 0 0 0
229 1 -16.545847124313106 -0.22552309722768246 -14.512680985915367 1 0 238.7324039657 0 0 0
363 1 -26.2247122550673 10.107557843851149 -12.833967227455142 1 1 238.7324039657 0 0 0
224 1 -15.396048725936044 -0.5663052846906345 -10.463879636057971 1 0 238.7324039657 0 0 0
226 1 -15.29776801351122 -0.9356750398684488 -12.140470602615546 1 0 238.7324039657 0 0 0
225 1 -15.173997814072369 -1.055489606862046 -11.264457485034432 1 0 238.7324039657 0 0 0
382 1 -22.79350415719798 6.659467484118663 -10.894178932846899 1 1 238.7324039657 0 0 0
381 1 -22.0050663741389 7.058340208388949 -11.196299589204312 1 1 238.7324039657 0 0 0
367 1 -26.238235739190582 9.08256413815435 -10.537516525190258 1 1 238.7324039657 0 0 0
366 1 -25.421944066126336 9.388170822970165 -11.081106362744539 1 1 238.7324039657 0 0 0
365 1 -25.12647725387401 9.942802491907457 -11.872520018333292 1 1 238.7324039657 0 0 0
364 1 -26.083849986906504 9.700434738730403 -11.998033510821188 1 1 238.7324039657 0 0 0
380 1 -21.236812400992026 7.739296023779472 -11.27863308824475 1 1 238.7324039657 0 0 0
376 1 -22.01526516407769 9.165670533679027 -10.24041345502552 1 1 238.7324039657 0 0 0
222 1 -15.560084405113074 -0.3775345509266266 -9.086552229122761 1 0 238.7324039657 0 0 0
223 1 -15.966983979521766 -0.05266078684893358 -9.849689602163954 1 0 238.7324039657 0 0 0
221 1 -15.111923515718388 0.35554374733113364 -8.648185235868878 1 0 238.7324039657 0 0 0
369 1 -25.571044149740693 8.07330749764798 -9.045695374218367 1 1 238.7324039657 0 0 0
383 1 -23.3274929052376 6.864906656179203 -10.108848340689072 1 1 238.7324039657 0 0 0
384 1 -23.770018107768006 7.730383437912346 -9.572966052300014 1 1 238.7324039657 0 0 0
368 1 -26.031420271126358 8.696542008638692 -9.622233490997681 1 1 238.7324039657 0 0 0
370 1 -26.20974892116289 8.367201512994535 -8.333840442864712 1 1 238.7324039657 0 0 0
371 1 -26.0825403391857 9.304145035211901 -8.68625423593697 1 1 238.7324039657 0 0 0
372 1 -25.216730089925097 9.651922608969844 -8.504074652557735 1 1 238.7324039657 0 0 0
375 1 -22.882074137790728 9.098004704578498 -9.768690118186536 1 1 238.7324039657 0 0 0
386 1 -24.56437290538794 8.773598434148687 -8.211460167321023 1 1 238.7324039657 0 0 0
385 1 -23.86618373327444 8.429377342606209 -8.918609344011609 1 1 238.7324039657 0 0 0
373 1 -24.339135977946423 9.851134251177553 -8.982406009453289 1 1 238.7324039657 0 0 0
374 1 -23.66016460705625 9.657784014582091 -9.68051761636493 1 1 238.7324039657 0 0 0
378 1 -21.173293251642075 9.13722012796153 -9.840621480503547 1 1 238.7324039657 0 0 0
379 1 -21.07062450613481 8.335345942471074 -10.555969800763924 1 1 238.7324039657 0 0 0
377 1 -21.573855002210433 9.970328633665435 -10.02358311365274 1 1 238.7324039657 0 0 0
220 1 -15.60766666387683 0.7674418942558835 -7.955859946957575 1 0 238.7324039657 0 0 0
219 1 -15.884997857868893 0.5696279901364812 -6.9769088592681685 1 0 238.7324039657 0 0 0
387 1 -25.287887478648297 9.036517164863762 -7.621709809165962 1 1 238.7324039657 0 0 0
388 1 -25.590374314089242 9.936156222293874 -7.554158309013936 1 1 238.7324039657 0 0 0
218 1 -15.980604298573345 0.336086563665318 -5.961006443028233 1 0 238.7324039657 0 0 0
216 1 -15.154389528657365 0.4754819196940037 -4.965068938417858 1 0 238.7324039657 0 0 0
217 1 -15.715671686271074 1.1278642458870671 -5.459862449147971 1 0 238.7324039657 0 0 0
499 1 -34.37655903307197 8.492038250019746 -2.6603305060008444 1 1 238.7324039657 0 0 0
498 1 -33.486506967109776 8.721316119678562 -2.593802983032443 1 1 238.7324039657 0 0 0
497 1 -32.90083264310784 9.081466337144569 -1.9668859265748262 1 1 238.7324039657 0 0 0
461 1 -30.12345934763711 3.52966255767147 1.942195423246143 1 1 238.7324039657 0 0 0
464 1 -31.178976718310746 5.547325593846834 1.1023919845832046 1 1 238.7324039657 0 0 0
463 1 -31.2489355755585 4.550092532063335 1.2464957746005971 1 1 238.7324039657 0 0 0
465 1 -31.89179419138783 6.302698936661332 1.0598253996727813 1 1 238.7324039657 0 0 0
466 1 -32.749873882192986 6.676727497339986 0.8831926895783342 1 1 238.7324039657 0 0 0
467 1 -31.98087125198783 7.381447313786405 0.7399840255401707 1 1 238.7324039657 0 0 0
468 1 -31.21748708047235 7.932148628117219 0.912257151902893 1 1 238.7324039657 0 0 0
469 1 -31.627133455932373 8.799201830308636 1.1813061659986879 1 1 238.7324039657 0 0 0
462 1 -31.16589437836942 3.7362281602850884 1.8676782859992271 1 1 238.7324039657 0 0 0
460 1 -29.572319109045893 2.8684191444984406 2.51667676427096 1 1 238.7324039657 0 0 0
459 1 -29.341937059122234 3.2480657017207695 3.4805901514077364 1 1 238.7324039657 0 0 0
458 1 -28.480463672755235 3.269688941021558 3.239995774697827 1 1 238.7324039657 0 0 0
457 1 -28.630784695072567 3.7394467460494027 4.058301757456771 1 1 238.7324039657 0 0 0
456 1 -29.124029620627688 4.553334901861754 3.8601354710637215 1 1 238.7324039657 0 0 0
470 1 -31.60153280590974 9.606518403703433 1.8072473590052736 1 1 238.7324039657 0 0 0
195 1 -16.816236984680884 8.718456358012507 3.4331860705724213 1 0 238.7324039657 0 0 0
172 1 -14.789086326692757 9.563707752691784 3.1701509186219132 1 0 238.7324039657 0 0 0
446 1 -24.76097935731033 8.41694233130873 9.537595427414908 1 1 238.7324039657 0 0 0
196 1 -16.122011980805546 8.323836306692831 3.8494045808546935 1 0 238.7324039657 0 0 0
194 1 -16.523969647465524 9.489780905246775 3.0545292813038794 1 0 238.7324039657 0 0 0
455 1 -28.52826036048153 4.742803045651692 4.5930781640741385 1 1 238.7324039657 0 0 0
454 1 -27.541537365634607 4.905308659859538 4.162470235194697 1 1 238.7324039657 0 0 0
453 1 -27.12196441978314 5.643071074908212 4.636018605590722 1 1 238.7324039657 0 0 0
452 1 -26.957418048440818 5.74196937064965 5.6063083348441465 1 1 238.7324039657 0 0 0
451 1 -26.31769215494282 6.181960648745951 6.257823349646719 1 1 238.7324039657 0 0 0
197 1 -15.301003683110023 7.868526821965563 4.161305671771794 1 0 238.7324039657 0 0 0
450 1 -26.015948627096325 6.151560280953914 7.176096910421107 1 1 238.7324039657 0 0 0
449 1 -25.75154071547467 6.7167368877106375 7.801166123612636 1 1 238.7324039657 0 0 0
448 1 -25.496425146624826 7.076945821994322 8.695673012492053 1 1 238.7324039657 0 0 0
445 1 -24.497324040893577 9.413825086054036 9.33249380113295 1 1 238.7324039657 0 0 0
447 1 -24.871195054417765 7.437795948457985 9.30567373810545 1 1 238.7324039657 0 0 0
444 1 -24.06983182445275 10.136533686094243 9.750736163934222 1 1 238.7324039657 0 0 0
260 1 -18.142496150937774 9.985790879769436 -16.398219732573814 1 1 238.7324039657 0 0 0
496 1 -32.72667131761687 9.879628944764914 -1.480792273220917 1 1 238.7324039657 0 0 0
471 1 -32.100132142868475 10.158134228909645 2.4685672327054036 1 1 238.7324039657 0 0 0
193 1 -15.715495151682155 10.174521309193524 2.719984258292953 1 0 238.7324039657 0 0 0
351 1 -21.730777010770428 13.332376509773477 -19.470818772595937 1 1 238.7324039657 0 0 0
354 1 -23.202598945789628 14.506544656648826 -18.748823818619442 1 1 238.7324039657 0 0 0
353 1 -22.64792286489095 14.159424261343984 -19.48943084332553 1 1 238.7324039657 0 0 0
352 1 -22.433079612647745 13.457926848482721 -20.092646710012364 1 1 238.7324039657 0 0 0
258 1 -17.190611203746332 11.146948435783582 -17.281901968403584 1 1 238.7324039657 0 0 0
259 1 -17.440951929411252 10.257560627716176 -16.876146727839583 1 1 238.7324039657 0 0 0
257 1 -16.442360320903585 10.766262910342117 -17.737923772919853 1 1 238.7324039657 0 0 0
256 1 -15.555965683532376 10.630717902618462 -17.27807712737447 1 1 238.7324039657 0 0 0
357 1 -24.199279947307097 12.781366322968344 -17.006734013328966 1 1 238.7324039657 0 0 0
356 1 -24.137657396848777 13.343516258590432 -17.802372093004987 1 1 238.7324039657 0 0 0
355 1 -23.97418721392403 14.261061345865793 -18.148849690444433 1 1 238.7324039657 0 0 0
350 1 -20.957102951528988 13.744580484136188 -18.946034046285877 1 1 238.7324039657 0 0 0
349 1 -21.511791094597157 14.364481396287035 -18.398096031564865 1 1 238.7324039657 0 0 0
348 1 -21.680206588180916 15.04063237907452 -17.709492540460875 1 1 238.7324039657 0 0 0
347 1 -20.80838098389481 14.981507519129117 -17.316936561639576 1 1 238.7324039657 0 0 0
346 1 -20.145566028442595 15.385729168835484 -16.64735017985406 1 1 238.7324039657 0 0 0
345 1 -19.28799170559778 15.713856495867436 -17.07236730535665 1 1 238.7324039657 0 0 0
344 1 -18.4306488278364 15.285347944205322 -16.822354832429614 1 1 238.7324039657 0 0 0
360 1 -25.33402000166905 11.50232011744092 -15.018814885768604 1 1 238.7324039657 0 0 0
359 1 -24.519332035897904 11.716754981179431 -15.432884480149669 1 1 238.7324039657 0 0 0
358 1 -24.509081481580836 12.130113257399824 -16.359663418293877 1 1 238.7324039657 0 0 0
262 1 -18.27751179616305 10.954142749353181 -15.171352807496886 1 1 238.7324039657 0 0 0
311 1 -14.94506812536782 21.14241218259812 -12.369109554482057 1 1 238.7324039657 0 0 0
261 1 -18.706359436395342 10.397375752125683 -15.803000109089227 1 1 238.7324039657 0 0 0
341 1 -16.105849058752817 14.427477554820323 -16.147689851061166 1 1 238.7324039657 0 0 0
340 1 -15.38364646711815 13.783030694444333 -16.263805495058474 1 1 238.7324039657 0 0 0
343 1 -17.51465644437091 15.253424717402355 -16.697665988025506 1 1 238.7324039657 0 0 0
342 1 -17.0460298480104 14.670863700733932 -16.128271160159162 1 1 238.7324039657 0 0 0
306 1 -17.336809242479283 21.436167901909265 -15.038435196998915 1 1 238.7324039657 0 0 0
361 1 -25.758037620305757 11.346270983826143 -14.19445579239245 1 1 238.7324039657 0 0 0
362 1 -25.767979409777446 10.802916934960045 -13.407569291866585 1 1 238.7324039657 0 0 0
264 1 -18.34052992971936 11.65715949529354 -13.455516432855937 1 1 238.7324039657 0 0 0
263 1 -18.48471018177282 11.35372402754324 -14.334047754920647 1 1 238.7324039657 0 0 0
304 1 -18.503604572035716 21.292731017591255 -13.629862412286146 1 1 238.7324039657 0 0 0
303 1 -18.41706304052792 20.613640038124025 -12.938241234085153 1 1 238.7324039657 0 0 0
305 1 -17.712552662571206 21.29929411498686 -14.173979611168761 1 1 238.7324039657 0 0 0
307 1 -16.456199870829618 21.19568948951596 -14.861927501315037 1 1 238.7324039657 0 0 0
309 1 -15.897086668746354 20.570019085422004 -13.363912660050438 1 1 238.7324039657 0 0 0
308 1 -15.69115086301221 20.943825074027227 -14.246945323819574 1 1 238.7324039657 0 0 0
265 1 -18.073000455916286 11.6805649899587 -12.600983508800677 1 1 238.7324039657 0 0 0
266 1 -17.433874789089295 11.986758110323528 -11.891852906800924 1 1 238.7324039657 0 0 0
267 1 -17.494442058415608 12.628938735153548 -11.19357640342528 1 1 238.7324039657 0 0 0
301 1 -17.78091371248089 19.838310576928425 -11.405943209789058 1 1 238.7324039657 0 0 0
302 1 -18.289847749155 20.137679956525258 -12.072338717693391 1 1 238.7324039657 0 0 0
300 1 -17.33978261421553 19.22648865153843 -10.785599790074627 1 1 238.7324039657 0 0 0
310 1 -15.891232965847115 20.81884753574689 -12.421590461138058 1 1 238.7324039657 0 0 0
268 1 -16.735621531968874 12.592713347830099 -10.594141488127613 1 1 238.7324039657 0 0 0
269 1 -16.0884433749398 13.060728327187537 -10.041389508282924 1 1 238.7324039657 0 0 0
270 1 -15.756492827707888 13.15512207011823 -9.140708622659814 1 1 238.7324039657 0 0 0
284 1 -15.458048067768289 16.443390336053927 -8.227924065570312 1 1 238.7324039657 0 0 0
285 1 -15.394264707516605 16.597402191693455 -9.15705751849437 1 1 238.7324039657 0 0 0
286 1 -14.809520997715548 16.78218428120264 -9.921185362253617 1 1 238.7324039657 0 0 0
288 1 -15.2169885561942 18.052067559681365 -8.77618751053377 1 1 238.7324039657 0 0 0
299 1 -16.693575990422524 19.32848235450208 -10.098200926372309 1 1 238.7324039657 0 0 0
298 1 -16.120219743814474 19.5932635584684 -9.315014198472772 1 1 238.7324039657 0 0 0
297 1 -15.147012670335926 19.300208463598825 -9.190217491844116 1 1 238.7324039657 0 0 0
389 1 -25.88520669068641 10.688212143069434 -6.98129013397722 1 1 238.7324039657 0 0 0
390 1 -26.074155494625135 11.552555556238499 -6.713845018392733 1 1 238.7324039657 0 0 0
391 1 -26.345466521581606 12.482657246746957 -6.602577803192022 1 1 238.7324039657 0 0 0
272 1 -15.51540141294038 12.60012053273641 -7.654917988683736 1 1 238.7324039657 0 0 0
271 1 -15.740086031900457 12.410641569012316 -8.602861511768042 1 1 238.7324039657 0 0 0
273 1 -15.292687761147375 12.532938842861327 -6.688660790100098 1 1 238.7324039657 0 0 0
283 1 -15.153903894887337 15.54108634529646 -7.888067130712381 1 1 238.7324039657 0 0 0
439 1 -23.399360841268635 13.133423521388996 8.876579450473756 1 1 238.7324039657 0 0 0
441 1 -23.260239755402836 12.323245649449849 10.491619592354892 1 1 238.7324039657 0 0 0
393 1 -26.831691728438287 14.238359315662892 -5.952226224928099 1 1 238.7324039657 0 0 0
392 1 -26.631085109013796 13.376872704859638 -6.3880019653385025 1 1 238.7324039657 0 0 0
442 1 -23.90372259490968 11.580050518620544 10.046959998266408 1 1 238.7324039657 0 0 0
274 1 -15.438522837391327 12.803373879129222 -5.758802196541873 1 1 238.7324039657 0 0 0
394 1 -27.003904036791305 15.211824195211344 -5.9832212011241 1 1 238.7324039657 0 0 0
395 1 -26.777835821775454 16.000551307274236 -5.579151130739559 1 1 238.7324039657 0 0 0
396 1 -26.964492010635244 16.9284559132958 -5.351404140780481 1 1 238.7324039657 0 0 0
397 1 -26.025323051759358 16.90005999158292 -5.080562229246856 1 1 238.7324039657 0 0 0
404 1 -22.005685696192277 16.93066574528157 -2.246077817100394 1 1 238.7324039657 0 0 0
405 1 -21.301891809539374 16.008327123677617 -2.3334303288862137 1 1 238.7324039657 0 0 0
406 1 -20.79582079308681 14.950084848097152 -2.346352791013106 1 1 238.7324039657 0 0 0
398 1 -25.70585929576267 17.03671754504056 -4.1340599779685485 1 1 238.7324039657 0 0 0
399 1 -25.33311525084496 17.408415876890725 -3.3172631183406915 1 1 238.7324039657 0 0 0
401 1 -24.132405466011786 18.144504863677675 -2.108288557991506 1 1 238.7324039657 0 0 0
400 1 -24.69587919751991 17.585675008360482 -2.6886954852352027 1 1 238.7324039657 0 0 0
402 1 -23.2114803746375 17.999010880587356 -1.759176239667206 1 1 238.7324039657 0 0 0
403 1 -22.99682898903753 17.126182689056012 -2.0807534825897585 1 1 238.7324039657 0 0 0
490 1 -34.4748124339139 11.92066467983753 -0.22602621159167466 1 1 238.7324039657 0 0 0
255 1 -14.756981063755072 10.351200245909565 -17.11916149741215 1 1 238.7324039657 0 0 0
495 1 -32.18839857563874 10.692224796087846 -1.6569673776865768 1 1 238.7324039657 0 0 0
411 1 -16.91495789293454 12.725755115564604 -0.9729163179828859 1 1 238.7324039657 0 0 0
410 1 -17.73048026385862 12.391096237191709 -1.4879921744033369 1 1 238.7324039657 0 0 0
412 1 -16.66184597081309 11.93217517469338 -0.4931217382967246 1 1 238.7324039657 0 0 0
489 1 -34.18273494956014 12.420526294825121 0.4644337583855025 1 1 238.7324039657 0 0 0
491 1 -34.57237341303529 12.102700351958234 -1.0979388513297483 1 1 238.7324039657 0 0 0
492 1 -33.87515081340252 12.387095593924977 -1.7159832112765632 1 1 238.7324039657 0 0 0
494 1 -32.47063765606498 11.549070467296062 -1.3439944395125816 1 1 238.7324039657 0 0 0
493 1 -32.93271008216203 12.386253439688712 -1.7065232340383594 1 1 238.7324039657 0 0 0
408 1 -18.921868225317883 13.748244384230627 -1.9790657931407758 1 1 238.7324039657 0 0 0
407 1 -19.77297155976947 14.318267282423072 -2.261546205622757 1 1 238.7324039657 0 0 0
409 1 -18.109334496459983 13.18564494110724 -1.9920888129101464 1 1 238.7324039657 0 0 0
413 1 -16.707537255612948 12.278379006227494 0.4623660116685102 1 1 238.7324039657 0 0 0
488 1 -33.47747057810803 13.06892267043747 0.7345013235235472 1 1 238.7324039657 0 0 0
487 1 -32.52917883671496 13.070455061989655 1.2508147772013412 1 1 238.7324039657 0 0 0
486 1 -32.12574145666202 13.523029915795775 0.5459317834729213 1 1 238.7324039657 0 0 0
475 1 -30.471639086067036 12.562926412316175 2.4066626928007535 1 1 238.7324039657 0 0 0
482 1 -29.098381511347522 14.082958077418654 1.1334664881164387 1 1 238.7324039657 0 0 0
483 1 -30.050854279031114 14.41405157545012 1.3107962444584031 1 1 238.7324039657 0 0 0
484 1 -31.02484898301652 14.825107792935924 0.8379374558477332 1 1 238.7324039657 0 0 0
481 1 -28.59882674564421 13.737982636360627 1.939232836996507 1 1 238.7324039657 0 0 0
414 1 -16.555395624458907 12.078175812701687 1.526300145182905 1 1 238.7324039657 0 0 0
485 1 -31.682809093036983 14.29220142813609 0.20131938074032435 1 1 238.7324039657 0 0 0
473 1 -31.549030635449785 12.0870021499075 3.0001277698902062 1 1 238.7324039657 0 0 0
472 1 -31.69190895035129 11.118460180033203 2.7305416145657744 1 1 238.7324039657 0 0 0
440 1 -23.78337934551211 12.936553054805588 9.742584707611881 1 1 238.7324039657 0 0 0
477 1 -29.545220847076514 11.38852872058644 2.7681130434216943 1 1 238.7324039657 0 0 0
476 1 -29.700867270321158 12.301844665929517 2.9933983361376404 1 1 238.7324039657 0 0 0
478 1 -28.5616711758492 11.191840425190149 2.8621808654547514 1 1 238.7324039657 0 0 0
479 1 -28.453369257007605 12.125982637820991 2.725830740583066 1 1 238.7324039657 0 0 0
443 1 -24.558294449748182 10.898853767226424 10.141252810566147 1 1 238.7324039657 0 0 0
192 1 -16.27632802339078 10.89455533625565 3.033755244755255 1 0 238.7324039657 0 0 0
177 1 -16.655026827620915 12.005493448524298 3.4593555467702455 1 0 238.7324039657 0 0 0
191 1 -16.91847721845857 11.081291906731705 3.999047608143953 1 0 238.7324039657 0 0 0
474 1 -31.11870000805762 12.990457946383941 2.930896735069948 1 1 238.7324039657 0 0 0
480 1 -28.278172295377978 12.98440349697199 2.5470315950267213 1 1 238.7324039657 0 0 0
181 1 -18.92135328363121 13.300774527282623 3.037435795543818 1 0 238.7324039657 0 0 0
182 1 -19.840386659048857 13.03039726570421 3.64817556789576 1 0 238.7324039657 0 0 0
183 1 -20.142962123287045 14.008371043115462 3.835113781595973 1 0 238.7324039657 0 0 0
188 1 -18.154143578818992 12.79390772346118 4.135145006710512 1 0 238.7324039657 0 0 0
180 1 -18.088841056998316 13.76163856379194 2.5415153345514896 1 0 238.7324039657 0 0 0
178 1 -17.085659930668996 12.160465240186165 2.6072804157713443 1 0 238.7324039657 0 0 0
179 1 -17.584722706797805 12.913795921544097 2.8474504354030343 1 0 238.7324039657 0 0 0
415 1 -15.872407315737865 12.668589168659317 2.0675035959878936 1 1 238.7324039657 0 0 0
416 1 -15.371157941189136 13.286814492616317 2.793387047910677 1 1 238.7324039657 0 0 0
417 1 -14.793119897364218 14.030830834043408 3.606114752777337 1 1 238.7324039657 0 0 0
418 1 -14.77164922053383 14.572703296941688 4.460477232603572 1 1 238.7324039657 0 0 0
190 1 -17.299636604408782 11.6453711331677 4.6554533070338 1 0 238.7324039657 0 0 0
189 1 -18.32858174897489 11.956907389333383 4.730861161445302 1 0 238.7324039657 0 0 0
174 1 -15.003664711313686 10.724589170951123 4.2256383493046155 1 0 238.7324039657 0 0 0
175 1 -15.781928503276523 11.123798643742278 4.597623707088617 1 0 238.7324039657 0 0 0
428 1 -19.187567564830758 12.608645414891818 5.783281254400297 1 1 238.7324039657 0 0 0
429 1 -19.924513655478915 13.014770910098 6.195813417347239 1 1 238.7324039657 0 0 0
186 1 -19.068152126168048 14.102983941392878 5.161081560736573 1 0 238.7324039657 0 0 0
187 1 -18.67347526749619 13.62573199818324 4.392390017456749 1 0 238.7324039657 0 0 0
176 1 -16.15456743978934 11.909186522486051 4.202337742169511 1 0 238.7324039657 0 0 0
438 1 -23.871148556136735 12.322423482783933 8.691385805159257 1 1 238.7324039657 0 0 0
184 1 -19.75042936471325 14.553595073735307 4.5761457968643375 1 0 238.7324039657 0 0 0
185 1 -19.756298237603687 14.548510081696538 5.6322807720031935 1 0 238.7324039657 0 0 0
420 1 -15.20551397571887 14.06272733449818 5.737163325713048 1 1 238.7324039657 0 0 0
421 1 -16.164156882373778 14.324406286480293 5.847777322604906 1 1 238.7324039657 0 0 0
436 1 -23.526419004168734 11.15787562606007 8.13808639063833 1 1 238.7324039657 0 0 0
437 1 -23.7464762128539 11.973290188394248 7.742832055709154 1 1 238.7324039657 0 0 0
432 1 -21.90261767193604 11.55175900782971 6.708847025859783 1 1 238.7324039657 0 0 0
433 1 -22.723307855757096 12.001921396232785 6.6560538064197825 1 1 238.7324039657 0 0 0
431 1 -21.51244401211883 12.31722518406389 7.02912403088121 1 1 238.7324039657 0 0 0
434 1 -22.655725104454042 11.517505490440923 7.61969625831561 1 1 238.7324039657 0 0 0
430 1 -20.698429093319422 12.84443891048923 6.766245496677681 1 1 238.7324039657 0 0 0
426 1 -18.669144601236958 14.084328413013171 6.399283232781904 1 1 238.7324039657 0 0 0
427 1 -18.70494058061951 13.12844423957845 6.369652549941884 1 1 238.7324039657 0 0 0
422 1 -16.54851687824729 15.210653588613123 5.603125576527386 1 1 238.7324039657 0 0 0
423 1 -17.075259394389608 15.603332019283265 6.282483292396218 1 1 238.7324039657 0 0 0
425 1 -18.0478887974973 14.684397967972336 5.93288235709009 1 1 238.7324039657 0 0 0
424 1 -18.068247014608303 15.444821229101155 6.573417376715087 1 1 238.7324039657 0 0 0
435 1 -22.757306757568255 10.545546947381364 7.860618448230828 1 1 238.7324039657 0 0 0
240 1 -13.191516705536987 6.159216434165477 -17.81243094575484 1 0 238.7324039657 0 0 0
236 1 -12.946193544873621 3.632204105002982 -16.17387770476909 1 0 238.7324039657 0 0 0
237 1 -12.16839282160603 4.214569211610434 -16.440615639121827 1 0 238.7324039657 0 0 0
239 1 -13.197383202011808 5.300702335555061 -17.495238563778294 1 0 238.7324039657 0 0 0
238 1 -12.703520402642718 4.840200646177902 -16.834729953739405 1 0 238.7324039657 0 0 0
241 1 -12.726424052653432 7.003682208116738 -17.433784391186112 1 0 238.7324039657 0 0 0
243 1 -12.273097314101511 7.328329471613191 -16.246730512672354 1 0 238.7324039657 0 0 0
242 1 -12.653917927281766 6.507129775102592 -16.589427572545244 1 0 238.7324039657 0 0 0
244 1 -11.650828989507573 7.279696008187497 -16.935833018363258 1 0 238.7324039657 0 0 0
245 1 -10.666972895137523 7.410907883434053 -17.2034527378592 1 0 238.7324039657 0 0 0
246 1 -9.876602929550875 7.377773868009012 -16.654983250124992 1 0 238.7324039657 0 0 0
247 1 -9.176303834716961 7.890650700817659 -16.134298701609406 1 0 238.7324039657 0 0 0
254 1 -13.818432712632895 9.853008812152 -17.149974942780798 1 1 238.7324039657 0 0 0
84 1 -2.021980695869656 15.32767655023116 -4.9588438029008755 1 0 238.7324039657 0 0 0
253 1 -12.878939977811482 9.56148774993494 -17.020639969466988 1 1 238.7324039657 0 0 0
252 1 -11.98070081764173 9.277247513553608 -16.884386220110223 1 1 238.7324039657 0 0 0
251 1 -11.680119849954998 8.429511488502559 -17.14064737370488 1 1 238.7324039657 0 0 0
250 1 -10.870799350810136 8.575284060504263 -16.746132621071485 1 0 238.7324039657 0 0 0
249 1 -9.861083548942448 8.675907830667354 -16.21489152608585 1 0 238.7324039657 0 0 0
338 1 -13.68196870711637 13.512196580619966 -15.826009050757463 1 1 238.7324039657 0 0 0
339 1 -14.425105396552764 13.828789516664578 -16.330058843970438 1 1 238.7324039657 0 0 0
235 1 -13.737722605182793 3.4854902930276785 -15.451950235661242 1 0 238.7324039657 0 0 0
234 1 -14.19673939580104 2.6946435844667627 -15.177527926402787 1 0 238.7324039657 0 0 0
248 1 -9.30688584951871 8.817367495507739 -15.418942907759309 1 0 238.7324039657 0 0 0
337 1 -12.600669730852335 13.45881728808887 -15.638083620591992 1 1 238.7324039657 0 0 0
335 1 -10.905252361377231 13.26934625571622 -14.83320615712066 1 1 238.7324039657 0 0 0
336 1 -11.684130332824818 13.474775493964547 -15.386565020217295 1 1 238.7324039657 0 0 0
333 1 -9.233528555123105 13.32151551523685 -14.521120091491223 1 1 238.7324039657 0 0 0
334 1 -9.975224019456316 12.872848380465252 -14.944219512019254 1 1 238.7324039657 0 0 0
332 1 -8.253112973081077 13.439380619514116 -14.401313119651991 1 1 238.7324039657 0 0 0
331 1 -7.414648025940111 13.902942283475912 -14.49214253314946 1 1 238.7324039657 0 0 0
329 1 -8.296583654532864 14.495979562658048 -13.244257203972923 1 1 238.7324039657 0 0 0
330 1 -7.454134867281183 14.552100339997997 -13.7388279180108 1 1 238.7324039657 0 0 0
324 1 -9.955191683990906 17.601804611028744 -13.916254701574907 1 1 238.7324039657 0 0 0
323 1 -9.957018491045446 18.566765805779742 -14.003388555573968 1 1 238.7324039657 0 0 0
322 1 -10.452528368270816 19.31070832806622 -13.736792332385818 1 1 238.7324039657 0 0 0
321 1 -10.538011074126848 20.24955228612415 -13.73993610367472 1 1 238.7324039657 0 0 0
328 1 -8.547754025893562 15.35786820286189 -12.887438839124917 1 1 238.7324039657 0 0 0
327 1 -9.423328664383853 15.540050979864102 -12.803060253035182 1 1 238.7324039657 0 0 0
326 1 -10.027652578004957 16.277828532263005 -12.611998267695986 1 1 238.7324039657 0 0 0
325 1 -9.819792373487878 16.893532288247723 -13.240680186072975 1 1 238.7324039657 0 0 0
313 1 -13.534347622994837 20.60012229042745 -11.512036611192114 1 1 238.7324039657 0 0 0
82 1 -2.281089572191064 14.884595939317101 -3.1288389459751555 1 0 238.7324039657 0 0 0
312 1 -13.997930757363173 20.804787549614304 -12.315895786275636 1 1 238.7324039657 0 0 0
314 1 -12.73329074511144 20.859164924486443 -11.949152392146281 1 1 238.7324039657 0 0 0
315 1 -11.861444608361833 21.383983123710493 -11.711848757652648 1 1 238.7324039657 0 0 0
317 1 -11.47957550344066 22.5380460165006 -12.17827873870784 1 1 238.7324039657 0 0 0
319 1 -10.986506456611972 20.81040993230748 -12.023211266241391 1 1 238.7324039657 0 0 0
320 1 -10.6981000305333 20.83182116795965 -12.951381235577644 1 1 238.7324039657 0 0 0
318 1 -11.105226818583107 21.69246957367915 -12.454248988684247 1 1 238.7324039657 0 0 0
316 1 -11.122368177666285 21.990543686178874 -11.423496119159259 1 1 238.7324039657 0 0 0
44 1 0.9180625795863615 3.7944999099246006 -7.503032472261374 1 0 238.7324039657 0 0 0
46 1 2.118544604682216 3.620838607437654 -7.663760076006794 1 0 238.7324039657 0 0 0
48 1 3.386873625649604 3.5915634990405194 -7.382330690336223 1 0 238.7324039657 0 0 0
42 1 -0.08895691591523312 5.306207892058166 -7.974092574880554 1 0 238.7324039657 0 0 0
45 1 1.574467688698464 4.214820133094997 -8.158623454435753 1 0 238.7324039657 0 0 0
41 1 0.7182710335836047 5.642208926041919 -7.596022994967505 1 0 238.7324039657 0 0 0
43 1 0.3670994788109503 4.4383387809793335 -8.010714668084503 1 0 238.7324039657 0 0 0
47 1 2.6990399377950465 4.309349636121468 -7.507234024259298 1 0 238.7324039657 0 0 0
39 1 -1.0053134100321202 6.791870525429278 -7.304373097206971 1 0 238.7324039657 0 0 0
40 1 -0.03933840032470654 6.309857816586416 -7.4544795594402755 1 0 238.7324039657 0 0 0
97 1 1.6858923628891225 9.696736013409916 -8.575295368515588 1 0 238.7324039657 0 0 0
98 1 2.4220502637270847 9.943765511158995 -8.098816908948994 1 0 238.7324039657 0 0 0
99 1 2.7596449302016044 10.298826229840223 -7.2771175075114005 1 0 238.7324039657 0 0 0
92 1 -0.7453827373307435 11.602710342713936 -8.127648310862108 1 0 238.7324039657 0 0 0
91 1 -1.2690769921255523 11.936558357182754 -7.48900325298802 1 0 238.7324039657 0 0 0
90 1 -2.2743557430693677 11.776403381188388 -7.174651248209328 1 0 238.7324039657 0 0 0
94 1 0.7867912335879362 12.18055956056546 -9.018029389686784 1 0 238.7324039657 0 0 0
95 1 1.1420983979436368 11.241772318270167 -8.81342297999206 1 0 238.7324039657 0 0 0
93 1 0.11485613385787177 11.568238610881494 -8.562450825503936 1 0 238.7324039657 0 0 0
96 1 1.8142720538659562 10.635111391989927 -8.806080217484729 1 0 238.7324039657 0 0 0
87 1 -2.659304869468606 13.97947817402426 -7.130850156821629 1 0 238.7324039657 0 0 0
88 1 -2.2352359331971803 13.388306693620109 -7.895862746019423 1 0 238.7324039657 0 0 0
89 1 -1.8985391129843874 12.699471600233801 -7.187924306438753 1 0 238.7324039657 0 0 0
293 1 -13.355752383124283 17.372976836164007 -8.169994876604187 1 1 238.7324039657 0 0 0
295 1 -13.710820327149051 18.375654326882877 -8.43206696680638 1 1 238.7324039657 0 0 0
294 1 -12.934028813375715 18.164128490674848 -7.905323581099878 1 1 238.7324039657 0 0 0
287 1 -14.637653629374226 17.338231244693453 -9.16254624451216 1 1 238.7324039657 0 0 0
296 1 -14.4417778918095 18.941719858455922 -8.555377147268036 1 1 238.7324039657 0 0 0
49 1 2.9005465236183965 2.806012175435065 -6.853352136242187 1 0 238.7324039657 0 0 0
50 1 3.7520918863310335 2.4962588076685543 -6.675926708339651 1 0 238.7324039657 0 0 0
51 1 3.7044854666487232 2.6717861026684098 -5.644001915892137 1 0 238.7324039657 0 0 0
52 1 3.135689448433204 3.4490625022236507 -5.899583518916687 1 0 238.7324039657 0 0 0
34 1 -0.26814636031651296 5.845389572989154 -5.591060103823873 1 0 238.7324039657 0 0 0
53 1 2.9162242382534713 4.4540193447948395 -5.605296913661037 1 0 238.7324039657 0 0 0
37 1 -2.32842924152632 6.230604820846743 -6.558926863926328 1 0 238.7324039657 0 0 0
38 1 -1.8650449967009326 7.038873432489743 -6.899970960422813 1 0 238.7324039657 0 0 0
36 1 -1.4186347641076493 6.218007016561066 -6.209325596975611 1 0 238.7324039657 0 0 0
35 1 -0.4500086586869108 6.005323399353979 -6.524074007443399 1 0 238.7324039657 0 0 0
101 1 3.101000925434809 10.23772701686967 -5.667077891382032 1 0 238.7324039657 0 0 0
100 1 3.3145198121712887 10.689186382017306 -6.493900478592884 1 0 238.7324039657 0 0 0
279 1 -13.270613980820839 14.179780735885615 -5.354920878189111 1 1 238.7324039657 0 0 0
278 1 -13.759669714818676 13.913533694424501 -4.4996629993138395 1 1 238.7324039657 0 0 0
86 1 -1.9695080588085445 14.348265784565315 -6.622549518181968 1 0 238.7324039657 0 0 0
292 1 -12.953187235417502 17.438470100470255 -7.225936124977737 1 1 238.7324039657 0 0 0
280 1 -13.882953615375323 14.663870801284872 -5.884279993778979 1 1 238.7324039657 0 0 0