LAMMPS (7 Feb 2024 - Development - patch_21Nov2023-1045-ge8b69cd74a-modified)
KOKKOS mode with Kokkos version 4.2.0 is enabled (../kokkos.cpp:72)
package kokkos
package kokkos comm device
###
# Reference paper:
# K. Kremer and G. S. Grest
# Dynamics of entangled linear polymer melts: A molecular-dynamics simulation
# J Chem Phys 92, 5057 (1990)
###

###
# Box and units  (use LJ units and periodic boundaries)
###

units lj

atom_style ellipsoid

boundary        p p p

###
# Pair interactions require lists of neighbours to be calculated
###
neighbor 0.3 bin
neigh_modify every 1 delay 0 check yes

### Generate RESTART file, SPECIAL format, not a .txt file ###
### Useful if simulation crashes ###
#restart 10000 polymer.restart
#############################

#processors 2 1 1

### READ "REstart" data file ###
#read_restart polymer.restart.10000
######################

read_data lmp_data
Reading data file ...
  orthogonal box = (-5 -5 -5) to (5 5 5)
  1 by 1 by 2 MPI processor grid
  reading atoms ...
  2 atoms
  reading velocities ...
  2 velocities
  2 ellipsoids
  read_data CPU = 0.002 seconds

### reset timestep ###
reset_timestep 0
######################

###
# Define groups (atom type 1 is group 'all')
###
group all type 1
2 atoms in group all
group polymer type 1
2 atoms in group polymer

###
# Dump configs - "simple dumpings"
###

###
# Dump configs + box coords
###
compute q all property/atom quatw quati quatj quatk
compute diameter all property/atom shapex shapey shapez
dump 1 all custom 100 dump.polymer id type x y z c_q[1] c_q[2] c_q[3] c_q[4] c_diameter[1] c_diameter[2] c_diameter[3]
dump_modify 1 colname c_q[1] quatw colname c_q[2] quati colname c_q[3] quatj colname c_q[4] quatk
dump_modify 1 colname c_diameter[1] shapex colname c_diameter[2] shapey colname c_diameter[3] shapez
#dump   1   all   custom   100000   polymer.dump.*  id x y z  ix iy iz
#dump_modify   1   format line "%d %.5f %.5f %.5f %d %d %d"
#dump   id all atom 1 dump.polymer

###################################################################
# Stiffness term
#
# E = K * (theta-thera0)**2, K>0
#
#angle_style   harmonic
#angle_coeff   1 2.0 120.0
###################################################################

###################################################################
# Pair interaction between non-bonded atoms
#
#  Lennard-Jones 12-6 potential with cutoff:
#  potential E=4epsilon[ (sigma/r)^12 - (sigma/r)^6]  for r<r_cut
#
#  1.12246152962189 = 2^(1/6) is the minimum of the potential

pair_style      lj/cut 1.12246152962189

#
#  pair_coeff for lj/cut, specify 4:
#    * atom type interacting with
#    * atom type
#    * epsilon (energy units)
#    * sigma (distance units)
#

pair_coeff      1 1 1.0 1.0

#
#  pair_modify shift yes adds a constant to the potential such
#  that E(r_cut)=0. Forces remains unchanged.
#

pair_modify     shift yes

###################################################

#comm_modify cutoff 6
#comm_style tiled
#balance 1.2 rcb

###
# Set up fixes
###

fix 1 all   nve   ###NVE ensemble
#fix 2 all   langevin   1.0 1.0   2.0   424242   ###Langevin integrator Tstart Tstop 1/friction rndseed

compute ekin all ke
compute epot all pe
variable ekin equal c_ekin
variable epot equal c_epot
variable etot equal c_ekin+c_epot

fix 5 all print 1000 "$(step)  ekin = ${ekin} | epot = ${epot} | etot = ${etot}" screen yes

##### Sample thermodynamic info  (temperature, energy, pressure, etc.) #####
#thermo 10000
#thermo_style   custom   step  temp  epair  emol  press pxx pyy pzz  vol
############################################################################

###
# set timestep of integrator
###
timestep 0.001 #0.012

###
# run integration for a number of steps
###
run 250000
Generated 0 of 0 mixed pair_coeff terms from geometric mixing rule
Neighbor list info ...
  update: every = 1 steps, delay = 0 steps, check = yes
  max neighbors/atom: 2000, page size: 100000
  master list distance cutoff = 1.4224615
  ghost atom cutoff = 1.4224615
  binsize = 0.71123076, bins = 15 15 15
  1 neighbor lists, perpetual/occasional/extra = 1 0 0
  (1) pair lj/cut/kk, perpetual
      attributes: half, newton on, kokkos_device
      pair build: half/bin/newton/kk/device
      stencil: half/bin/3d
      bin: kk/device
0  ekin = 1.75781242141986 | epot = 0 | etot = 1.75781242141986
Per MPI rank memory allocation (min/avg/max) = 5.174 | 5.174 | 5.174 Mbytes
   Step          Temp          E_pair         E_mol          TotEng         Press     
         0   1.1718749      0              0              0.87890621     0.0011718749 
1000  ekin = 1.75781242141986 | epot = 0 | etot = 1.75781242141986
2000  ekin = 1.75781242141986 | epot = 0 | etot = 1.75781242141986
3000  ekin = 1.75781242141986 | epot = 0 | etot = 1.75781242141986
4000  ekin = 1.75781242141986 | epot = 0 | etot = 1.75781242141986
5000  ekin = 1.75781242141986 | epot = 0 | etot = 1.75781242141986
6000  ekin = 1.75781242141986 | epot = 0 | etot = 1.75781242141986
7000  ekin = 1.75781242141986 | epot = 0 | etot = 1.75781242141986
8000  ekin = 1.75781242141986 | epot = 0 | etot = 1.75781242141986
9000  ekin = 1.75781242141986 | epot = 0 | etot = 1.75781242141986
10000  ekin = 1.75781242141986 | epot = 0 | etot = 1.75781242141986
11000  ekin = 1.75781242141986 | epot = 0 | etot = 1.75781242141986
12000  ekin = 1.75781242141986 | epot = 0 | etot = 1.75781242141986
13000  ekin = 1.75781242141986 | epot = 0 | etot = 1.75781242141986
14000  ekin = 1.75781242141986 | epot = 0 | etot = 1.75781242141986
15000  ekin = 1.75781242141986 | epot = 0 | etot = 1.75781242141986
16000  ekin = 1.75781242141986 | epot = 0 | etot = 1.75781242141986
17000  ekin = 1.75781242141986 | epot = 0 | etot = 1.75781242141986
18000  ekin = 1.75781242141986 | epot = 0 | etot = 1.75781242141986
19000  ekin = 1.75781242141986 | epot = 0 | etot = 1.75781242141986
20000  ekin = 1.75781242141986 | epot = 0 | etot = 1.75781242141986
21000  ekin = 1.75781242141986 | epot = 0 | etot = 1.75781242141986
22000  ekin = 1.75781242141986 | epot = 0 | etot = 1.75781242141986
23000  ekin = 1.75781242141986 | epot = 0 | etot = 1.75781242141986
24000  ekin = 1.75781242141986 | epot = 0 | etot = 1.75781242141986
25000  ekin = 1.75781242141986 | epot = 0 | etot = 1.75781242141986
26000  ekin = 1.75781242141986 | epot = 0 | etot = 1.75781242141986
27000  ekin = 1.75781242141986 | epot = 0 | etot = 1.75781242141986
28000  ekin = 1.75781242141986 | epot = 0 | etot = 1.75781242141986
29000  ekin = 1.75781242141986 | epot = 0 | etot = 1.75781242141986
30000  ekin = 1.75781242141986 | epot = 0 | etot = 1.75781242141986
31000  ekin = 1.75781242141986 | epot = 0 | etot = 1.75781242141986
32000  ekin = 1.75781242141986 | epot = 0 | etot = 1.75781242141986
33000  ekin = 1.75781242141986 | epot = 0 | etot = 1.75781242141986
34000  ekin = 1.75781242141986 | epot = 0 | etot = 1.75781242141986
35000  ekin = 1.75781242141986 | epot = 0 | etot = 1.75781242141986
36000  ekin = 1.75781242141986 | epot = 0 | etot = 1.75781242141986
37000  ekin = 1.75781242141986 | epot = 0 | etot = 1.75781242141986
38000  ekin = 1.75781242141986 | epot = 0 | etot = 1.75781242141986
39000  ekin = 1.75781242141986 | epot = 0 | etot = 1.75781242141986
40000  ekin = 1.75781242141986 | epot = 0 | etot = 1.75781242141986
41000  ekin = 1.75781242141986 | epot = 0 | etot = 1.75781242141986
42000  ekin = 1.75781242141986 | epot = 0 | etot = 1.75781242141986
43000  ekin = 1.75781242141986 | epot = 0 | etot = 1.75781242141986
44000  ekin = 1.75781242141986 | epot = 0 | etot = 1.75781242141986
45000  ekin = 1.75781242141986 | epot = 0 | etot = 1.75781242141986
46000  ekin = 1.75781242141986 | epot = 0 | etot = 1.75781242141986
47000  ekin = 1.75781242141986 | epot = 0 | etot = 1.75781242141986
48000  ekin = 1.75781242141986 | epot = 0 | etot = 1.75781242141986
49000  ekin = 1.75781242141986 | epot = 0 | etot = 1.75781242141986
50000  ekin = 1.75781242141986 | epot = 0 | etot = 1.75781242141986
51000  ekin = 1.75781242141986 | epot = 0 | etot = 1.75781242141986
52000  ekin = 1.75781242141986 | epot = 0 | etot = 1.75781242141986
53000  ekin = 1.75781242141986 | epot = 0 | etot = 1.75781242141986
54000  ekin = 1.75781242141986 | epot = 0 | etot = 1.75781242141986
55000  ekin = 1.75781242141986 | epot = 0 | etot = 1.75781242141986
56000  ekin = 1.75781242141986 | epot = 0 | etot = 1.75781242141986
57000  ekin = 1.75781242141986 | epot = 0 | etot = 1.75781242141986
58000  ekin = 1.75781242141986 | epot = 0 | etot = 1.75781242141986
59000  ekin = 1.75781242141986 | epot = 0 | etot = 1.75781242141986
60000  ekin = 1.75781242141986 | epot = 0 | etot = 1.75781242141986
61000  ekin = 1.75781242141986 | epot = 0 | etot = 1.75781242141986
62000  ekin = 1.75781242141986 | epot = 0 | etot = 1.75781242141986
63000  ekin = 1.75781242141986 | epot = 0 | etot = 1.75781242141986
64000  ekin = 1.75781242141986 | epot = 0 | etot = 1.75781242141986
65000  ekin = 1.75781242141986 | epot = 0 | etot = 1.75781242141986
66000  ekin = 1.75781242141986 | epot = 0 | etot = 1.75781242141986
67000  ekin = 1.75781242141986 | epot = 0 | etot = 1.75781242141986
68000  ekin = 1.75781242141986 | epot = 0 | etot = 1.75781242141986
69000  ekin = 1.75781242141986 | epot = 0 | etot = 1.75781242141986
70000  ekin = 1.75781242141986 | epot = 0 | etot = 1.75781242141986
71000  ekin = 1.75781242141986 | epot = 0 | etot = 1.75781242141986
72000  ekin = 1.75781242141986 | epot = 0 | etot = 1.75781242141986
73000  ekin = 1.75781242141986 | epot = 0 | etot = 1.75781242141986
74000  ekin = 1.75781242141986 | epot = 0 | etot = 1.75781242141986
75000  ekin = 1.75781242141986 | epot = 0 | etot = 1.75781242141986
76000  ekin = 1.75781242141986 | epot = 0 | etot = 1.75781242141986
77000  ekin = 1.75781242141986 | epot = 0 | etot = 1.75781242141986
78000  ekin = 1.75781242141986 | epot = 0 | etot = 1.75781242141986
79000  ekin = 1.75781242141986 | epot = 0 | etot = 1.75781242141986
80000  ekin = 1.75781242141986 | epot = 0 | etot = 1.75781242141986
81000  ekin = 1.75781242141986 | epot = 0 | etot = 1.75781242141986
82000  ekin = 1.75781242141986 | epot = 0 | etot = 1.75781242141986
83000  ekin = 1.75781242141986 | epot = 0 | etot = 1.75781242141986
84000  ekin = 1.75781242141986 | epot = 0 | etot = 1.75781242141986
85000  ekin = 1.75781242141986 | epot = 0 | etot = 1.75781242141986
86000  ekin = 1.75781242141986 | epot = 0 | etot = 1.75781242141986
87000  ekin = 1.75781242141986 | epot = 0 | etot = 1.75781242141986
88000  ekin = 1.75781242141986 | epot = 0 | etot = 1.75781242141986
89000  ekin = 1.75781242141986 | epot = 0 | etot = 1.75781242141986
90000  ekin = 1.75781242141986 | epot = 0 | etot = 1.75781242141986
91000  ekin = 1.75781242141986 | epot = 0 | etot = 1.75781242141986
92000  ekin = 1.75781242141986 | epot = 0 | etot = 1.75781242141986
93000  ekin = 1.75781242141986 | epot = 0 | etot = 1.75781242141986
94000  ekin = 1.75781242141986 | epot = 0 | etot = 1.75781242141986
95000  ekin = 1.75781242141986 | epot = 0 | etot = 1.75781242141986
96000  ekin = 1.75781242141986 | epot = 0 | etot = 1.75781242141986
97000  ekin = 1.75781242141986 | epot = 0 | etot = 1.75781242141986
98000  ekin = 1.75781242141986 | epot = 0 | etot = 1.75781242141986
99000  ekin = 1.75781242141986 | epot = 0 | etot = 1.75781242141986
100000  ekin = 1.75781242141986 | epot = 0 | etot = 1.75781242141986
101000  ekin = 1.75781242141986 | epot = 0 | etot = 1.75781242141986
102000  ekin = 1.75781242141986 | epot = 0 | etot = 1.75781242141986
103000  ekin = 1.75781242141986 | epot = 0 | etot = 1.75781242141986
104000  ekin = 1.75781242141986 | epot = 0 | etot = 1.75781242141986
105000  ekin = 1.75781242141986 | epot = 0 | etot = 1.75781242141986
106000  ekin = 1.75781242141986 | epot = 0 | etot = 1.75781242141986
107000  ekin = 1.75781242141986 | epot = 0 | etot = 1.75781242141986
108000  ekin = 1.75781242141986 | epot = 0 | etot = 1.75781242141986
109000  ekin = 1.75781242141986 | epot = 0 | etot = 1.75781242141986
110000  ekin = 1.75781242141986 | epot = 0 | etot = 1.75781242141986
111000  ekin = 1.75781242141986 | epot = 0 | etot = 1.75781242141986
112000  ekin = 1.75781242141986 | epot = 0 | etot = 1.75781242141986
113000  ekin = 1.75781242141986 | epot = 0 | etot = 1.75781242141986
114000  ekin = 1.75781242141986 | epot = 0 | etot = 1.75781242141986
115000  ekin = 1.75781242141986 | epot = 0 | etot = 1.75781242141986
116000  ekin = 1.75781242141986 | epot = 0 | etot = 1.75781242141986
117000  ekin = 1.75781242141986 | epot = 0 | etot = 1.75781242141986
118000  ekin = 1.75781242141986 | epot = 0 | etot = 1.75781242141986
119000  ekin = 1.75781242141986 | epot = 0 | etot = 1.75781242141986
120000  ekin = 1.75781242141986 | epot = 0 | etot = 1.75781242141986
121000  ekin = 1.75781242141986 | epot = 0 | etot = 1.75781242141986
122000  ekin = 1.75781242141986 | epot = 0 | etot = 1.75781242141986
123000  ekin = 1.75781242141986 | epot = 0 | etot = 1.75781242141986
124000  ekin = 1.75781242141986 | epot = 0 | etot = 1.75781242141986
125000  ekin = 1.75781242141986 | epot = 0 | etot = 1.75781242141986
126000  ekin = 1.75781242141986 | epot = 0 | etot = 1.75781242141986
127000  ekin = 1.75781242141986 | epot = 0 | etot = 1.75781242141986
128000  ekin = 1.75781242141986 | epot = 0 | etot = 1.75781242141986
129000  ekin = 1.75781242141986 | epot = 0 | etot = 1.75781242141986
130000  ekin = 1.75781242141986 | epot = 0 | etot = 1.75781242141986
131000  ekin = 1.75781242141986 | epot = 0 | etot = 1.75781242141986
132000  ekin = 1.75781242141986 | epot = 0 | etot = 1.75781242141986
133000  ekin = 1.75781242141986 | epot = 0 | etot = 1.75781242141986
134000  ekin = 1.75781242141986 | epot = 0 | etot = 1.75781242141986
135000  ekin = 1.75781242141986 | epot = 0 | etot = 1.75781242141986
136000  ekin = 1.75781242141986 | epot = 0 | etot = 1.75781242141986
137000  ekin = 1.75781242141986 | epot = 0 | etot = 1.75781242141986
138000  ekin = 1.75781242141986 | epot = 0 | etot = 1.75781242141986
139000  ekin = 1.75781242141986 | epot = 0 | etot = 1.75781242141986
140000  ekin = 1.75781242141986 | epot = 0 | etot = 1.75781242141986
141000  ekin = 1.75781242141986 | epot = 0 | etot = 1.75781242141986
142000  ekin = 1.75781242141986 | epot = 0 | etot = 1.75781242141986
143000  ekin = 1.75781242141986 | epot = 0 | etot = 1.75781242141986
144000  ekin = 1.75781242141986 | epot = 0 | etot = 1.75781242141986
145000  ekin = 1.75781242141986 | epot = 0 | etot = 1.75781242141986
146000  ekin = 1.75781242141986 | epot = 0 | etot = 1.75781242141986
147000  ekin = 1.75781242141986 | epot = 0 | etot = 1.75781242141986
148000  ekin = 1.75781242141986 | epot = 0 | etot = 1.75781242141986
149000  ekin = 1.75781242141986 | epot = 0 | etot = 1.75781242141986
150000  ekin = 1.75781242141986 | epot = 0 | etot = 1.75781242141986
151000  ekin = 1.75781242141986 | epot = 0 | etot = 1.75781242141986
152000  ekin = 1.75781242141986 | epot = 0 | etot = 1.75781242141986
153000  ekin = 1.75781242141986 | epot = 0 | etot = 1.75781242141986
154000  ekin = 1.75781242141986 | epot = 0 | etot = 1.75781242141986
155000  ekin = 1.75781242141986 | epot = 0 | etot = 1.75781242141986
156000  ekin = 1.75781242141986 | epot = 0 | etot = 1.75781242141986
157000  ekin = 1.75781242141986 | epot = 0 | etot = 1.75781242141986
158000  ekin = 1.75781242141986 | epot = 0 | etot = 1.75781242141986
159000  ekin = 1.75781242141986 | epot = 0 | etot = 1.75781242141986
160000  ekin = 1.75781242141986 | epot = 0 | etot = 1.75781242141986
161000  ekin = 1.75781242141986 | epot = 0 | etot = 1.75781242141986
162000  ekin = 1.75781242141986 | epot = 0 | etot = 1.75781242141986
163000  ekin = 1.75781242141986 | epot = 0 | etot = 1.75781242141986
164000  ekin = 1.75781242141986 | epot = 0 | etot = 1.75781242141986
165000  ekin = 1.75781242141986 | epot = 0 | etot = 1.75781242141986
166000  ekin = 1.75781242141986 | epot = 0 | etot = 1.75781242141986
167000  ekin = 1.75781242141986 | epot = 0 | etot = 1.75781242141986
168000  ekin = 1.75781242141986 | epot = 0 | etot = 1.75781242141986
169000  ekin = 1.75781242141986 | epot = 0 | etot = 1.75781242141986
170000  ekin = 1.75781242141986 | epot = 0 | etot = 1.75781242141986
171000  ekin = 1.75781242141986 | epot = 0 | etot = 1.75781242141986
172000  ekin = 1.75781242141986 | epot = 0 | etot = 1.75781242141986
173000  ekin = 1.75781242141986 | epot = 0 | etot = 1.75781242141986
174000  ekin = 1.75781242141986 | epot = 0 | etot = 1.75781242141986
175000  ekin = 1.75781242141986 | epot = 0 | etot = 1.75781242141986
176000  ekin = 1.75781242141986 | epot = 0 | etot = 1.75781242141986
177000  ekin = 1.75781242141986 | epot = 0 | etot = 1.75781242141986
178000  ekin = 1.75781242141986 | epot = 0 | etot = 1.75781242141986
179000  ekin = 1.75781242141986 | epot = 0 | etot = 1.75781242141986
180000  ekin = 1.75781242141986 | epot = 0 | etot = 1.75781242141986
181000  ekin = 1.75781242141986 | epot = 0 | etot = 1.75781242141986
182000  ekin = 1.75781242141986 | epot = 0 | etot = 1.75781242141986
183000  ekin = 1.75781242141986 | epot = 0 | etot = 1.75781242141986
184000  ekin = 1.75781242141986 | epot = 0 | etot = 1.75781242141986
185000  ekin = 1.75781242141986 | epot = 0 | etot = 1.75781242141986
186000  ekin = 1.75781242141986 | epot = 0 | etot = 1.75781242141986
187000  ekin = 1.75781242141986 | epot = 0 | etot = 1.75781242141986
188000  ekin = 1.75781242141986 | epot = 0 | etot = 1.75781242141986
189000  ekin = 1.75781242141986 | epot = 0 | etot = 1.75781242141986
190000  ekin = 1.75781242141986 | epot = 0 | etot = 1.75781242141986
191000  ekin = 1.75781242141986 | epot = 0 | etot = 1.75781242141986
192000  ekin = 1.75781242141986 | epot = 0 | etot = 1.75781242141986
193000  ekin = 1.75781242141986 | epot = 0 | etot = 1.75781242141986
194000  ekin = 1.75781242141986 | epot = 0 | etot = 1.75781242141986
195000  ekin = 1.75781242141986 | epot = 0 | etot = 1.75781242141986
196000  ekin = 1.75781242141986 | epot = 0 | etot = 1.75781242141986
197000  ekin = 1.75781242141986 | epot = 0 | etot = 1.75781242141986
198000  ekin = 1.75781242141986 | epot = 0 | etot = 1.75781242141986
199000  ekin = 1.75781242141986 | epot = 0 | etot = 1.75781242141986
200000  ekin = 1.75781242141986 | epot = 0 | etot = 1.75781242141986
201000  ekin = 1.75781242141986 | epot = 0 | etot = 1.75781242141986
202000  ekin = 1.75781242141986 | epot = 0 | etot = 1.75781242141986
203000  ekin = 1.75781242141986 | epot = 0 | etot = 1.75781242141986
204000  ekin = 1.75781242141986 | epot = 0 | etot = 1.75781242141986
205000  ekin = 1.75781242141986 | epot = 0 | etot = 1.75781242141986
206000  ekin = 1.75781242141986 | epot = 0 | etot = 1.75781242141986
207000  ekin = 1.75781242141986 | epot = 0 | etot = 1.75781242141986
208000  ekin = 1.75781242141986 | epot = 0 | etot = 1.75781242141986
209000  ekin = 1.75781242141986 | epot = 0 | etot = 1.75781242141986
210000  ekin = 1.75781242141986 | epot = 0 | etot = 1.75781242141986
211000  ekin = 1.75781242141986 | epot = 0 | etot = 1.75781242141986
212000  ekin = 1.75781242141986 | epot = 0 | etot = 1.75781242141986
213000  ekin = 1.75781242141986 | epot = 0 | etot = 1.75781242141986
214000  ekin = 1.75781242141986 | epot = 0 | etot = 1.75781242141986
215000  ekin = 1.75781242141986 | epot = 0 | etot = 1.75781242141986
216000  ekin = 1.75781242141986 | epot = 0 | etot = 1.75781242141986
217000  ekin = 1.75781242141986 | epot = 0 | etot = 1.75781242141986
218000  ekin = 1.75781242141986 | epot = 0 | etot = 1.75781242141986
219000  ekin = 1.75781242141986 | epot = 0 | etot = 1.75781242141986
220000  ekin = 1.75781242141986 | epot = 0 | etot = 1.75781242141986
221000  ekin = 1.75781242141986 | epot = 0 | etot = 1.75781242141986
222000  ekin = 1.75781242141986 | epot = 0 | etot = 1.75781242141986
223000  ekin = 1.75781242141986 | epot = 0 | etot = 1.75781242141986
224000  ekin = 1.75781242141986 | epot = 0 | etot = 1.75781242141986
225000  ekin = 1.75781242141986 | epot = 0 | etot = 1.75781242141986
226000  ekin = 1.75781242141986 | epot = 0 | etot = 1.75781242141986
227000  ekin = 1.75781242141986 | epot = 0 | etot = 1.75781242141986
228000  ekin = 1.75781242141986 | epot = 0 | etot = 1.75781242141986
229000  ekin = 1.75781242141986 | epot = 0 | etot = 1.75781242141986
230000  ekin = 1.75781242141986 | epot = 0 | etot = 1.75781242141986
231000  ekin = 1.75781242141986 | epot = 0 | etot = 1.75781242141986
232000  ekin = 1.75781242141986 | epot = 0 | etot = 1.75781242141986
233000  ekin = 1.75781242141986 | epot = 0 | etot = 1.75781242141986
234000  ekin = 1.75781242141986 | epot = 0 | etot = 1.75781242141986
235000  ekin = 1.75781242141986 | epot = 0 | etot = 1.75781242141986
236000  ekin = 1.75781242141986 | epot = 0 | etot = 1.75781242141986
237000  ekin = 1.75781242141986 | epot = 0 | etot = 1.75781242141986
238000  ekin = 1.75781242141986 | epot = 0 | etot = 1.75781242141986
239000  ekin = 1.75781242141986 | epot = 0 | etot = 1.75781242141986
240000  ekin = 1.75781242141986 | epot = 0 | etot = 1.75781242141986
241000  ekin = 1.75781242141986 | epot = 0 | etot = 1.75781242141986
242000  ekin = 1.75781242141986 | epot = 0 | etot = 1.75781242141986
243000  ekin = 1.75781242141986 | epot = 0 | etot = 1.75781242141986
244000  ekin = 1.75781242141986 | epot = 0 | etot = 1.75781242141986
245000  ekin = 1.75781242141986 | epot = 0 | etot = 1.75781242141986
246000  ekin = 1.75781242141986 | epot = 0 | etot = 1.75781242141986
247000  ekin = 1.75781242141986 | epot = 0 | etot = 1.75781242141986
248000  ekin = 1.75781242141986 | epot = 0 | etot = 1.75781242141986
249000  ekin = 1.75781242141986 | epot = 0 | etot = 1.75781242141986
250000  ekin = 1.75781242141986 | epot = 0 | etot = 1.75781242141986
    250000   1.1718749      0              0              0.87890621     0.0011718749 
Loop time of 2.52557 on 2 procs for 250000 steps with 2 atoms

Performance: 8552527.340 tau/day, 98987.585 timesteps/s, 197.975 katom-step/s
97.8% CPU use with 2 MPI tasks x 1 OpenMP threads

MPI task timing breakdown:
Section |  min time  |  avg time  |  max time  |%varavg| %total
---------------------------------------------------------------
Pair    | 0.43148    | 0.43435    | 0.43721    |   0.4 | 17.20
Neigh   | 0.0041216  | 0.0043905  | 0.0046593  |   0.4 |  0.17
Comm    | 1.04       | 1.0401     | 1.0403     |   0.0 | 41.18
Output  | 0.013554   | 0.017785   | 0.022016   |   3.2 |  0.70
Modify  | 0.61831    | 0.62338    | 0.62844    |   0.6 | 24.68
Other   |            | 0.4055     |            |       | 16.06

Nlocal:              1 ave           1 max           1 min
Histogram: 2 0 0 0 0 0 0 0 0 0
Nghost:            0.5 ave           1 max           0 min
Histogram: 1 0 0 0 0 0 0 0 0 1
Neighs:              0 ave           0 max           0 min
Histogram: 2 0 0 0 0 0 0 0 0 0

Total # of neighbors = 0
Ave neighs/atom = 0
Neighbor list builds = 499
Dangerous builds = 0

write_data data_out.* nocoeff
System init for write_data ...
Generated 0 of 0 mixed pair_coeff terms from geometric mixing rule

Total wall time: 0:00:02
