LAMMPS (7 Feb 2024 - Development - patch_21Nov2023-1045-ge8b69cd74a-modified)
KOKKOS mode with Kokkos version 4.2.0 is enabled (../kokkos.cpp:72)
package kokkos
package kokkos comm device
###
# Reference paper:
# K. Kremer and G. S. Grest
# Dynamics of entangled linear polymer melts: A molecular-dynamics simulation
# J Chem Phys 92, 5057 (1990)
###

###
# Box and units  (use LJ units and periodic boundaries)
###

units lj

atom_style ellipsoid

boundary        p p p

###
# Pair interactions require lists of neighbours to be calculated
###
neighbor 0.3 bin
neigh_modify every 1 delay 0 check yes

### Generate RESTART file, SPECIAL format, not a .txt file ###
### Useful if simulation crashes ###
#restart 10000 polymer.restart
#############################

#processors 2 1 1

### READ "REstart" data file ###
#read_restart polymer.restart.10000
######################

read_data lmp_data
Reading data file ...
  orthogonal box = (-5 -5 -5) to (5 5 5)
  1 by 1 by 2 MPI processor grid
  reading atoms ...
  3 atoms
  reading velocities ...
  3 velocities
  3 ellipsoids
  read_data CPU = 0.002 seconds

### reset timestep ###
reset_timestep 0
######################

###
# Define groups (atom type 1 is group 'all')
###
group all type 1
3 atoms in group all
group polymer type 1
3 atoms in group polymer

###
# Dump configs - "simple dumpings"
###

###
# Dump configs + box coords
###
compute q all property/atom quatw quati quatj quatk
compute diameter all property/atom shapex shapey shapez
dump 1 all custom 1 dump.polymer id type x y z c_q[1] c_q[2] c_q[3] c_q[4] c_diameter[1] c_diameter[2] c_diameter[3]
dump_modify 1 colname c_q[1] quatw colname c_q[2] quati colname c_q[3] quatj colname c_q[4] quatk
dump_modify 1 colname c_diameter[1] shapex colname c_diameter[2] shapey colname c_diameter[3] shapez
#dump   1   all   custom   100000   polymer.dump.*  id x y z  ix iy iz
#dump_modify   1   format line "%d %.5f %.5f %.5f %d %d %d"
#dump   id all atom 1 dump.polymer

###################################################################
# Stiffness term
#
# E = K * (theta-thera0)**2, K>0
#
#angle_style   harmonic
#angle_coeff   1 2.0 120.0
###################################################################

###################################################################
# Pair interaction between non-bonded atoms
#
#  Lennard-Jones 12-6 potential with cutoff:
#  potential E=4epsilon[ (sigma/r)^12 - (sigma/r)^6]  for r<r_cut
#
#  1.12246152962189 = 2^(1/6) is the minimum of the potential

pair_style      lj/cut 1.12246152962189

#
#  pair_coeff for lj/cut, specify 4:
#    * atom type interacting with
#    * atom type
#    * epsilon (energy units)
#    * sigma (distance units)
#

pair_coeff      1 1 1.0 1.0

#
#  pair_modify shift yes adds a constant to the potential such
#  that E(r_cut)=0. Forces remains unchanged.
#

pair_modify     shift yes

###################################################

#comm_modify cutoff 6
#comm_style tiled
#balance 1.2 rcb

###
# Set up fixes
###

fix 1 all   nve   ###NVE ensemble
#fix 2 all   langevin   1.0 1.0   2.0   424242   ###Langevin integrator Tstart Tstop 1/friction rndseed

compute ekin all ke
compute epot all pe
variable ekin equal c_ekin
variable epot equal c_epot
variable etot equal c_ekin+c_epot

fix 5 all print 1 "$(step)  ekin = ${ekin} | epot = ${epot} | etot = ${etot}" screen yes

##### Sample thermodynamic info  (temperature, energy, pressure, etc.) #####
#thermo 10000
#thermo_style   custom   step  temp  epair  emol  press pxx pyy pzz  vol
############################################################################

###
# set timestep of integrator
###
timestep 0.001 #0.012

###
# run integration for a number of steps
###
run 10000
Generated 0 of 0 mixed pair_coeff terms from geometric mixing rule
Neighbor list info ...
  update: every = 1 steps, delay = 0 steps, check = yes
  max neighbors/atom: 2000, page size: 100000
  master list distance cutoff = 1.4224615
  ghost atom cutoff = 1.4224615
  binsize = 0.71123076, bins = 15 15 15
  1 neighbor lists, perpetual/occasional/extra = 1 0 0
  (1) pair lj/cut/kk, perpetual
      attributes: half, newton on, kokkos_device
      pair build: half/bin/newton/kk/device
      stencil: half/bin/3d
      bin: kk/device
0  ekin = 7812.49965075494 | epot = 0 | etot = 7812.49965075494
Per MPI rank memory allocation (min/avg/max) = 5.174 | 5.174 | 5.174 Mbytes
   Step          Temp          E_pair         E_mol          TotEng         Press     
         0   2604.1666      0              0              2604.1666      5.2083331    
1  ekin = 7812.49965075494 | epot = 0 | etot = 7812.49965075494
2  ekin = 7812.49965075494 | epot = 0 | etot = 7812.49965075494
3  ekin = 7812.49965075494 | epot = 0 | etot = 7812.49965075494
4  ekin = 7812.49965075494 | epot = 0 | etot = 7812.49965075494
5  ekin = 7812.49965075494 | epot = 0 | etot = 7812.49965075494
6  ekin = 7812.49965075494 | epot = 0 | etot = 7812.49965075494
7  ekin = 7812.49965075494 | epot = 0 | etot = 7812.49965075494
8  ekin = 7812.49965075494 | epot = 0 | etot = 7812.49965075494
9  ekin = 7812.49965075494 | epot = 0 | etot = 7812.49965075494
10  ekin = 7812.49965075494 | epot = 0 | etot = 7812.49965075494
11  ekin = 7812.49965075494 | epot = 0 | etot = 7812.49965075494
12  ekin = 7812.49965075494 | epot = 0 | etot = 7812.49965075494
13  ekin = 7812.49965075494 | epot = 0 | etot = 7812.49965075494
14  ekin = 7812.49965075494 | epot = 0 | etot = 7812.49965075494
15  ekin = 7812.49965075494 | epot = 0 | etot = 7812.49965075494
16  ekin = 7812.49965075494 | epot = 0 | etot = 7812.49965075494
17  ekin = 7812.49965075494 | epot = 0 | etot = 7812.49965075494
18  ekin = 7812.49965075494 | epot = 0 | etot = 7812.49965075494
19  ekin = 7812.49965075494 | epot = 0 | etot = 7812.49965075494
20  ekin = 7812.49965075494 | epot = 0 | etot = 7812.49965075494
21  ekin = 7812.49965075494 | epot = 0 | etot = 7812.49965075494
22  ekin = 7812.49965075494 | epot = 0 | etot = 7812.49965075494
23  ekin = 7812.49965075494 | epot = 0 | etot = 7812.49965075494
24  ekin = 7812.49965075494 | epot = 0 | etot = 7812.49965075494
25  ekin = 7812.49965075494 | epot = 0 | etot = 7812.49965075494
26  ekin = 7812.49965075494 | epot = 0 | etot = 7812.49965075494
27  ekin = 7812.49965075494 | epot = 0 | etot = 7812.49965075494
28  ekin = 7812.49965075494 | epot = 0 | etot = 7812.49965075494
29  ekin = 7812.49965075494 | epot = 0 | etot = 7812.49965075494
30  ekin = 7812.49965075494 | epot = 0 | etot = 7812.49965075494
31  ekin = 7812.49965075494 | epot = 0 | etot = 7812.49965075494
32  ekin = 7812.49965075494 | epot = 0 | etot = 7812.49965075494
33  ekin = 7812.49965075494 | epot = 0 | etot = 7812.49965075494
34  ekin = 7812.49965075494 | epot = 0 | etot = 7812.49965075494
35  ekin = 7812.49965075494 | epot = 0 | etot = 7812.49965075494
36  ekin = 7812.49965075494 | epot = 0 | etot = 7812.49965075494
37  ekin = 7812.49965075494 | epot = 0 | etot = 7812.49965075494
38  ekin = 7812.49965075494 | epot = 0 | etot = 7812.49965075494
39  ekin = 7812.49965075494 | epot = 0 | etot = 7812.49965075494
40  ekin = 7812.49965075494 | epot = 0 | etot = 7812.49965075494
41  ekin = 7812.49965075494 | epot = 0 | etot = 7812.49965075494
42  ekin = 7812.49965075494 | epot = 0 | etot = 7812.49965075494
43  ekin = 7812.49965075494 | epot = 0 | etot = 7812.49965075494
44  ekin = 7812.49965075494 | epot = 0 | etot = 7812.49965075494
45  ekin = 7812.49965075494 | epot = 0 | etot = 7812.49965075494
46  ekin = 7812.49965075494 | epot = 0 | etot = 7812.49965075494
47  ekin = 7812.49965075494 | epot = 0 | etot = 7812.49965075494
48  ekin = 7812.49965075494 | epot = 0 | etot = 7812.49965075494
49  ekin = 7812.49965075494 | epot = 0 | etot = 7812.49965075494
50  ekin = 7812.49965075494 | epot = 0 | etot = 7812.49965075494
51  ekin = 7812.49965075494 | epot = 0 | etot = 7812.49965075494
52  ekin = 7812.49965075494 | epot = 0 | etot = 7812.49965075494
53  ekin = 7812.49965075494 | epot = 0 | etot = 7812.49965075494
54  ekin = 7812.49965075494 | epot = 0 | etot = 7812.49965075494
55  ekin = 7812.49965075494 | epot = 0 | etot = 7812.49965075494
56  ekin = 7812.49965075494 | epot = 0 | etot = 7812.49965075494
57  ekin = 7812.49965075494 | epot = 0 | etot = 7812.49965075494
58  ekin = 7812.49965075494 | epot = 0 | etot = 7812.49965075494
59  ekin = 7812.49965075494 | epot = 0 | etot = 7812.49965075494
60  ekin = 7812.49965075494 | epot = 0 | etot = 7812.49965075494
61  ekin = 7812.49965075494 | epot = 0 | etot = 7812.49965075494
62  ekin = 7812.49965075494 | epot = 0 | etot = 7812.49965075494
63  ekin = 7812.49965075494 | epot = 0 | etot = 7812.49965075494
64  ekin = 7812.49965075494 | epot = 0 | etot = 7812.49965075494
65  ekin = 7812.49965075494 | epot = 0 | etot = 7812.49965075494
66  ekin = 7812.49965075494 | epot = 0 | etot = 7812.49965075494
67  ekin = 7812.49965075494 | epot = 0 | etot = 7812.49965075494
68  ekin = 7812.49965075494 | epot = 0 | etot = 7812.49965075494
69  ekin = 7812.49965075494 | epot = 0 | etot = 7812.49965075494
70  ekin = 7812.49965075494 | epot = 0 | etot = 7812.49965075494
71  ekin = 7812.49965075494 | epot = 0 | etot = 7812.49965075494
72  ekin = 7812.49965075494 | epot = 0 | etot = 7812.49965075494
73  ekin = 7812.49965075494 | epot = 0 | etot = 7812.49965075494
74  ekin = 7812.49965075494 | epot = 0 | etot = 7812.49965075494
75  ekin = 7812.49965075494 | epot = 0 | etot = 7812.49965075494
76  ekin = 7812.49965075494 | epot = 0 | etot = 7812.49965075494
77  ekin = 7812.49965075494 | epot = 0 | etot = 7812.49965075494
78  ekin = 7812.49965075494 | epot = 0 | etot = 7812.49965075494
79  ekin = 7812.49965075494 | epot = 0 | etot = 7812.49965075494
80  ekin = 7812.49965075494 | epot = 0 | etot = 7812.49965075494
81  ekin = 7812.49965075494 | epot = 0 | etot = 7812.49965075494
82  ekin = 7812.49965075494 | epot = 0 | etot = 7812.49965075494
83  ekin = 7812.49965075494 | epot = 0 | etot = 7812.49965075494
84  ekin = 7812.49965075494 | epot = 0 | etot = 7812.49965075494
85  ekin = 7812.49965075494 | epot = 0 | etot = 7812.49965075494
86  ekin = 7812.49965075494 | epot = 0 | etot = 7812.49965075494
87  ekin = 7812.49965075494 | epot = 0 | etot = 7812.49965075494
88  ekin = 7812.49965075494 | epot = 0 | etot = 7812.49965075494
89  ekin = 7812.49965075494 | epot = 0 | etot = 7812.49965075494
90  ekin = 7812.49965075494 | epot = 0 | etot = 7812.49965075494
91  ekin = 7812.49965075494 | epot = 0 | etot = 7812.49965075494
92  ekin = 7812.49965075494 | epot = 0 | etot = 7812.49965075494
93  ekin = 7812.49965075494 | epot = 0 | etot = 7812.49965075494
94  ekin = 7812.49965075494 | epot = 0 | etot = 7812.49965075494
95  ekin = 7812.49965075494 | epot = 0 | etot = 7812.49965075494
96  ekin = 7812.49965075494 | epot = 0 | etot = 7812.49965075494
97  ekin = 7812.49965075494 | epot = 0 | etot = 7812.49965075494
98  ekin = 7812.49965075494 | epot = 0 | etot = 7812.49965075494
99  ekin = 7812.49965075494 | epot = 0 | etot = 7812.49965075494
100  ekin = 7812.49965075494 | epot = 0 | etot = 7812.49965075494
101  ekin = 7812.49965075494 | epot = 0 | etot = 7812.49965075494
102  ekin = 7812.49965075494 | epot = 0 | etot = 7812.49965075494
103  ekin = 7812.49965075494 | epot = 0 | etot = 7812.49965075494
104  ekin = 7812.49965075494 | epot = 0 | etot = 7812.49965075494
105  ekin = 7812.49965075494 | epot = 0 | etot = 7812.49965075494
106  ekin = 7812.49965075494 | epot = 0 | etot = 7812.49965075494
107  ekin = 7812.49965075494 | epot = 0 | etot = 7812.49965075494
108  ekin = 7812.49965075494 | epot = 0 | etot = 7812.49965075494
109  ekin = 7812.49965075494 | epot = 0 | etot = 7812.49965075494
110  ekin = 7812.49965075494 | epot = 0 | etot = 7812.49965075494
111  ekin = 7812.49965075494 | epot = 0 | etot = 7812.49965075494
112  ekin = 7812.49965075494 | epot = 0 | etot = 7812.49965075494
113  ekin = 7812.49965075494 | epot = 0 | etot = 7812.49965075494
114  ekin = 7812.49965075494 | epot = 0 | etot = 7812.49965075494
115  ekin = 7812.49965075494 | epot = 0 | etot = 7812.49965075494
116  ekin = 7812.49965075494 | epot = 0 | etot = 7812.49965075494
117  ekin = 7812.49965075494 | epot = 0 | etot = 7812.49965075494
118  ekin = 7812.49965075494 | epot = 0 | etot = 7812.49965075494
119  ekin = 7812.49965075494 | epot = 0 | etot = 7812.49965075494
120  ekin = 7812.49965075494 | epot = 0 | etot = 7812.49965075494
121  ekin = 7812.49965075494 | epot = 0 | etot = 7812.49965075494
122  ekin = 7812.49965075494 | epot = 0 | etot = 7812.49965075494
123  ekin = 7812.49965075494 | epot = 0 | etot = 7812.49965075494
124  ekin = 7812.49965075494 | epot = 0 | etot = 7812.49965075494
125  ekin = 7812.49965075494 | epot = 0 | etot = 7812.49965075494
126  ekin = 7812.49965075494 | epot = 0 | etot = 7812.49965075494
127  ekin = 7812.49965075494 | epot = 0 | etot = 7812.49965075494
128  ekin = 7812.49965075494 | epot = 0 | etot = 7812.49965075494
129  ekin = 7812.49965075494 | epot = 0 | etot = 7812.49965075494
130  ekin = 7812.49965075494 | epot = 0 | etot = 7812.49965075494
131  ekin = 7812.49965075494 | epot = 0 | etot = 7812.49965075494
132  ekin = 7812.49965075494 | epot = 0 | etot = 7812.49965075494
133  ekin = 7812.49965075494 | epot = 0 | etot = 7812.49965075494
134  ekin = 7812.49965075494 | epot = 0 | etot = 7812.49965075494
135  ekin = 7812.49965075494 | epot = 0 | etot = 7812.49965075494
136  ekin = 7812.49965075494 | epot = 0 | etot = 7812.49965075494
137  ekin = 7812.49965075494 | epot = 0 | etot = 7812.49965075494
138  ekin = 7812.49965075494 | epot = 0 | etot = 7812.49965075494
139  ekin = 7812.49965075494 | epot = 0 | etot = 7812.49965075494
140  ekin = 7812.49965075494 | epot = 0 | etot = 7812.49965075494
141  ekin = 7812.49965075494 | epot = 0 | etot = 7812.49965075494
142  ekin = 7812.49965075494 | epot = 0 | etot = 7812.49965075494
143  ekin = 7812.49965075494 | epot = 0 | etot = 7812.49965075494
144  ekin = 7812.49965075494 | epot = 0 | etot = 7812.49965075494
145  ekin = 7812.49965075494 | epot = 0 | etot = 7812.49965075494
146  ekin = 7812.49965075494 | epot = 0 | etot = 7812.49965075494
147  ekin = 7812.49965075494 | epot = 0 | etot = 7812.49965075494
148  ekin = 7812.49965075494 | epot = 0 | etot = 7812.49965075494
149  ekin = 7812.49965075494 | epot = 0 | etot = 7812.49965075494
150  ekin = 7812.49965075494 | epot = 0 | etot = 7812.49965075494
151  ekin = 7812.49965075494 | epot = 0 | etot = 7812.49965075494
152  ekin = 7812.49965075494 | epot = 0 | etot = 7812.49965075494
153  ekin = 7812.49965075494 | epot = 0 | etot = 7812.49965075494
154  ekin = 7812.49965075494 | epot = 0 | etot = 7812.49965075494
155  ekin = 7812.49965075494 | epot = 0 | etot = 7812.49965075494
156  ekin = 7812.49965075494 | epot = 0 | etot = 7812.49965075494
157  ekin = 7812.49965075494 | epot = 0 | etot = 7812.49965075494
158  ekin = 7812.49965075494 | epot = 0 | etot = 7812.49965075494
159  ekin = 7812.49965075494 | epot = 0 | etot = 7812.49965075494
160  ekin = 7812.49965075494 | epot = 0 | etot = 7812.49965075494
161  ekin = 7812.49965075494 | epot = 0 | etot = 7812.49965075494
162  ekin = 7812.49965075494 | epot = 0 | etot = 7812.49965075494
163  ekin = 7812.49965075494 | epot = 0 | etot = 7812.49965075494
164  ekin = 7812.49965075494 | epot = 0 | etot = 7812.49965075494
165  ekin = 7812.49965075494 | epot = 0 | etot = 7812.49965075494
166  ekin = 7812.49965075494 | epot = 0 | etot = 7812.49965075494
167  ekin = 7812.49965075494 | epot = 0 | etot = 7812.49965075494
168  ekin = 7812.49965075494 | epot = 0 | etot = 7812.49965075494
169  ekin = 7812.49965075494 | epot = 0 | etot = 7812.49965075494
170  ekin = 7812.49965075494 | epot = 0 | etot = 7812.49965075494
171  ekin = 7812.49965075494 | epot = 0 | etot = 7812.49965075494
172  ekin = 7812.49965075494 | epot = 0 | etot = 7812.49965075494
173  ekin = 7812.49965075494 | epot = 0 | etot = 7812.49965075494
174  ekin = 7812.49965075494 | epot = 0 | etot = 7812.49965075494
175  ekin = 7812.49965075494 | epot = 0 | etot = 7812.49965075494
176  ekin = 7812.49965075494 | epot = 0 | etot = 7812.49965075494
177  ekin = 7812.49965075494 | epot = 0 | etot = 7812.49965075494
178  ekin = 7812.49965075494 | epot = 0 | etot = 7812.49965075494
179  ekin = 7812.49965075494 | epot = 0 | etot = 7812.49965075494
180  ekin = 7812.49965075494 | epot = 0 | etot = 7812.49965075494
181  ekin = 7812.49965075494 | epot = 0 | etot = 7812.49965075494
182  ekin = 7812.49965075494 | epot = 0 | etot = 7812.49965075494
183  ekin = 7812.49965075494 | epot = 0 | etot = 7812.49965075494
184  ekin = 7812.49965075494 | epot = 0 | etot = 7812.49965075494
185  ekin = 7812.49965075494 | epot = 0 | etot = 7812.49965075494
186  ekin = 7812.49965075494 | epot = 0 | etot = 7812.49965075494
187  ekin = 7812.49965075494 | epot = 0 | etot = 7812.49965075494
188  ekin = 7812.49965075494 | epot = 0 | etot = 7812.49965075494
189  ekin = 7812.49965075494 | epot = 0 | etot = 7812.49965075494
190  ekin = 7812.49965075494 | epot = 0 | etot = 7812.49965075494
191  ekin = 7812.49965075494 | epot = 0 | etot = 7812.49965075494
192  ekin = 7812.49965075494 | epot = 0 | etot = 7812.49965075494
193  ekin = 7812.49965075494 | epot = 0 | etot = 7812.49965075494
194  ekin = 7812.49965075494 | epot = 0 | etot = 7812.49965075494
195  ekin = 7812.49965075494 | epot = 0 | etot = 7812.49965075494
196  ekin = 7812.49965075494 | epot = 0 | etot = 7812.49965075494
197  ekin = 7812.49965075494 | epot = 0 | etot = 7812.49965075494
198  ekin = 7812.49965075494 | epot = 0 | etot = 7812.49965075494
199  ekin = 7812.49965075494 | epot = 0 | etot = 7812.49965075494
200  ekin = 7812.49965075494 | epot = 0 | etot = 7812.49965075494
201  ekin = 7812.49965075494 | epot = 0 | etot = 7812.49965075494
202  ekin = 7812.49965075494 | epot = 0 | etot = 7812.49965075494
203  ekin = 7812.49965075494 | epot = 0 | etot = 7812.49965075494
204  ekin = 7812.49965075494 | epot = 0 | etot = 7812.49965075494
205  ekin = 7812.49965075494 | epot = 0 | etot = 7812.49965075494
206  ekin = 7812.49965075494 | epot = 0 | etot = 7812.49965075494
207  ekin = 7812.49965075494 | epot = 0 | etot = 7812.49965075494
208  ekin = 7812.49965075494 | epot = 0 | etot = 7812.49965075494
209  ekin = 7812.49965075494 | epot = 0 | etot = 7812.49965075494
210  ekin = 7812.49965075494 | epot = 0 | etot = 7812.49965075494
211  ekin = 7812.49965075494 | epot = 0 | etot = 7812.49965075494
212  ekin = 7812.49965075494 | epot = 0 | etot = 7812.49965075494
213  ekin = 7812.49965075494 | epot = 0 | etot = 7812.49965075494
214  ekin = 7812.49965075494 | epot = 0 | etot = 7812.49965075494
215  ekin = 7812.49965075494 | epot = 0 | etot = 7812.49965075494
216  ekin = 7812.49965075494 | epot = 0 | etot = 7812.49965075494
217  ekin = 7812.49965075494 | epot = 0 | etot = 7812.49965075494
218  ekin = 7812.49965075494 | epot = 0 | etot = 7812.49965075494
219  ekin = 7812.49965075494 | epot = 0 | etot = 7812.49965075494
220  ekin = 7812.49965075494 | epot = 0 | etot = 7812.49965075494
221  ekin = 7812.49965075494 | epot = 0 | etot = 7812.49965075494
222  ekin = 7812.49965075494 | epot = 0 | etot = 7812.49965075494
223  ekin = 7812.49965075494 | epot = 0 | etot = 7812.49965075494
224  ekin = 7812.49965075494 | epot = 0 | etot = 7812.49965075494
225  ekin = 7812.49965075494 | epot = 0 | etot = 7812.49965075494
226  ekin = 7812.49965075494 | epot = 0 | etot = 7812.49965075494
227  ekin = 7812.49965075494 | epot = 0 | etot = 7812.49965075494
228  ekin = 7812.49965075494 | epot = 0 | etot = 7812.49965075494
229  ekin = 7812.49965075494 | epot = 0 | etot = 7812.49965075494
230  ekin = 7812.49965075494 | epot = 0 | etot = 7812.49965075494
231  ekin = 7812.49965075494 | epot = 0 | etot = 7812.49965075494
232  ekin = 7812.49965075494 | epot = 0 | etot = 7812.49965075494
233  ekin = 7812.49965075494 | epot = 0 | etot = 7812.49965075494
234  ekin = 7812.49965075494 | epot = 0 | etot = 7812.49965075494
235  ekin = 7812.49965075494 | epot = 0 | etot = 7812.49965075494
236  ekin = 7812.49965075494 | epot = 0 | etot = 7812.49965075494
237  ekin = 7812.49965075494 | epot = 0 | etot = 7812.49965075494
238  ekin = 7812.49965075494 | epot = 0 | etot = 7812.49965075494
239  ekin = 7812.49965075494 | epot = 0 | etot = 7812.49965075494
240  ekin = 7812.49965075494 | epot = 0 | etot = 7812.49965075494
241  ekin = 7812.49965075494 | epot = 0 | etot = 7812.49965075494
242  ekin = 7812.49965075494 | epot = 0 | etot = 7812.49965075494
243  ekin = 7812.49965075494 | epot = 0 | etot = 7812.49965075494
244  ekin = 7812.49965075494 | epot = 0 | etot = 7812.49965075494
245  ekin = 7812.49965075494 | epot = 0 | etot = 7812.49965075494
246  ekin = 7812.49965075494 | epot = 0 | etot = 7812.49965075494
247  ekin = 7812.49965075494 | epot = 0 | etot = 7812.49965075494
248  ekin = 7812.49965075494 | epot = 0 | etot = 7812.49965075494
249  ekin = 7812.49965075494 | epot = 0 | etot = 7812.49965075494
250  ekin = 7812.49965075494 | epot = 0 | etot = 7812.49965075494
251  ekin = 7812.49965075494 | epot = 0 | etot = 7812.49965075494
252  ekin = 7812.49965075494 | epot = 0 | etot = 7812.49965075494
253  ekin = 7812.49965075494 | epot = 0 | etot = 7812.49965075494
254  ekin = 7812.49965075494 | epot = 0 | etot = 7812.49965075494
255  ekin = 7812.49965075494 | epot = 0 | etot = 7812.49965075494
256  ekin = 7812.49965075494 | epot = 0 | etot = 7812.49965075494
257  ekin = 7812.49965075494 | epot = 0 | etot = 7812.49965075494
258  ekin = 7812.49965075494 | epot = 0 | etot = 7812.49965075494
259  ekin = 7812.49965075494 | epot = 0 | etot = 7812.49965075494
260  ekin = 7812.49965075494 | epot = 0 | etot = 7812.49965075494
261  ekin = 7812.49965075494 | epot = 0 | etot = 7812.49965075494
262  ekin = 7812.49965075494 | epot = 0 | etot = 7812.49965075494
263  ekin = 7812.49965075494 | epot = 0 | etot = 7812.49965075494
264  ekin = 7812.49965075494 | epot = 0 | etot = 7812.49965075494
265  ekin = 7812.49965075494 | epot = 0 | etot = 7812.49965075494
266  ekin = 7812.49965075494 | epot = 0 | etot = 7812.49965075494
267  ekin = 7812.49965075494 | epot = 0 | etot = 7812.49965075494
268  ekin = 7812.49965075494 | epot = 0 | etot = 7812.49965075494
269  ekin = 7812.49965075494 | epot = 0 | etot = 7812.49965075494
270  ekin = 7812.49965075494 | epot = 0 | etot = 7812.49965075494
271  ekin = 7812.49965075494 | epot = 0 | etot = 7812.49965075494
272  ekin = 7812.49965075494 | epot = 0 | etot = 7812.49965075494
273  ekin = 7812.49965075494 | epot = 0 | etot = 7812.49965075494
274  ekin = 7812.49965075494 | epot = 0 | etot = 7812.49965075494
275  ekin = 7812.49965075494 | epot = 0 | etot = 7812.49965075494
276  ekin = 7812.49965075494 | epot = 0 | etot = 7812.49965075494
277  ekin = 7812.49965075494 | epot = 0 | etot = 7812.49965075494
278  ekin = 7812.49965075494 | epot = 0 | etot = 7812.49965075494
279  ekin = 7812.49965075494 | epot = 0 | etot = 7812.49965075494
280  ekin = 7812.49965075494 | epot = 0 | etot = 7812.49965075494
281  ekin = 7812.49965075494 | epot = 0 | etot = 7812.49965075494
282  ekin = 7812.49965075494 | epot = 0 | etot = 7812.49965075494
283  ekin = 7812.49965075494 | epot = 0 | etot = 7812.49965075494
284  ekin = 7812.49965075494 | epot = 0 | etot = 7812.49965075494
285  ekin = 7812.49965075494 | epot = 0 | etot = 7812.49965075494
286  ekin = 7812.49965075494 | epot = 0 | etot = 7812.49965075494
287  ekin = 7812.49965075494 | epot = 0 | etot = 7812.49965075494
288  ekin = 7812.49965075494 | epot = 0 | etot = 7812.49965075494
289  ekin = 7812.49965075494 | epot = 0 | etot = 7812.49965075494
290  ekin = 7812.49965075494 | epot = 0 | etot = 7812.49965075494
291  ekin = 7812.49965075494 | epot = 0 | etot = 7812.49965075494
292  ekin = 7812.49965075494 | epot = 0 | etot = 7812.49965075494
293  ekin = 7812.49965075494 | epot = 0 | etot = 7812.49965075494
294  ekin = 7812.49965075494 | epot = 0 | etot = 7812.49965075494
295  ekin = 7812.49965075494 | epot = 0 | etot = 7812.49965075494
296  ekin = 7812.49965075494 | epot = 0 | etot = 7812.49965075494
297  ekin = 7812.49965075494 | epot = 0 | etot = 7812.49965075494
298  ekin = 7812.49965075494 | epot = 0 | etot = 7812.49965075494
299  ekin = 7812.49965075494 | epot = 0 | etot = 7812.49965075494
300  ekin = 7812.49965075494 | epot = 0 | etot = 7812.49965075494
301  ekin = 7812.49965075494 | epot = 0 | etot = 7812.49965075494
302  ekin = 7812.49965075494 | epot = 0 | etot = 7812.49965075494
303  ekin = 7812.49965075494 | epot = 0 | etot = 7812.49965075494
304  ekin = 7812.49965075494 | epot = 0 | etot = 7812.49965075494
305  ekin = 7812.49965075494 | epot = 0 | etot = 7812.49965075494
306  ekin = 7812.49965075494 | epot = 0 | etot = 7812.49965075494
307  ekin = 7812.49965075494 | epot = 0 | etot = 7812.49965075494
308  ekin = 7812.49965075494 | epot = 0 | etot = 7812.49965075494
309  ekin = 7812.49965075494 | epot = 0 | etot = 7812.49965075494
310  ekin = 7812.49965075494 | epot = 0 | etot = 7812.49965075494
311  ekin = 7812.49965075494 | epot = 0 | etot = 7812.49965075494
312  ekin = 7812.49965075494 | epot = 0 | etot = 7812.49965075494
313  ekin = 7812.49965075494 | epot = 0 | etot = 7812.49965075494
314  ekin = 7812.49965075494 | epot = 0 | etot = 7812.49965075494
315  ekin = 7812.49965075494 | epot = 0 | etot = 7812.49965075494
316  ekin = 7812.49965075494 | epot = 0 | etot = 7812.49965075494
317  ekin = 7812.49965075494 | epot = 0 | etot = 7812.49965075494
318  ekin = 7812.49965075494 | epot = 0 | etot = 7812.49965075494
319  ekin = 7812.49965075494 | epot = 0 | etot = 7812.49965075494
320  ekin = 7812.49965075494 | epot = 0 | etot = 7812.49965075494
321  ekin = 7812.49965075494 | epot = 0 | etot = 7812.49965075494
322  ekin = 7812.49965075494 | epot = 0 | etot = 7812.49965075494
323  ekin = 7812.49965075494 | epot = 0 | etot = 7812.49965075494
324  ekin = 7812.49965075494 | epot = 0 | etot = 7812.49965075494
325  ekin = 7812.49965075494 | epot = 0 | etot = 7812.49965075494
326  ekin = 7812.49965075494 | epot = 0 | etot = 7812.49965075494
327  ekin = 7812.49965075494 | epot = 0 | etot = 7812.49965075494
328  ekin = 7812.49965075494 | epot = 0 | etot = 7812.49965075494
329  ekin = 7812.49965075494 | epot = 0 | etot = 7812.49965075494
330  ekin = 7812.49965075494 | epot = 0 | etot = 7812.49965075494
331  ekin = 7812.49965075494 | epot = 0 | etot = 7812.49965075494
332  ekin = 7812.49965075494 | epot = 0 | etot = 7812.49965075494
333  ekin = 7812.49965075494 | epot = 0 | etot = 7812.49965075494
334  ekin = 7812.49965075494 | epot = 0 | etot = 7812.49965075494
335  ekin = 7812.49965075494 | epot = 0 | etot = 7812.49965075494
336  ekin = 7812.49965075494 | epot = 0 | etot = 7812.49965075494
337  ekin = 7812.49965075494 | epot = 0 | etot = 7812.49965075494
338  ekin = 7812.49965075494 | epot = 0 | etot = 7812.49965075494
339  ekin = 7812.49965075494 | epot = 0 | etot = 7812.49965075494
340  ekin = 7812.49965075494 | epot = 0 | etot = 7812.49965075494
341  ekin = 7812.49965075494 | epot = 0 | etot = 7812.49965075494
342  ekin = 7812.49965075494 | epot = 0 | etot = 7812.49965075494
343  ekin = 7812.49965075494 | epot = 0 | etot = 7812.49965075494
344  ekin = 7812.49965075494 | epot = 0 | etot = 7812.49965075494
345  ekin = 7812.49965075494 | epot = 0 | etot = 7812.49965075494
346  ekin = 7812.49965075494 | epot = 0 | etot = 7812.49965075494
347  ekin = 7812.49965075494 | epot = 0 | etot = 7812.49965075494
348  ekin = 7812.49965075494 | epot = 0 | etot = 7812.49965075494
349  ekin = 7812.49965075494 | epot = 0 | etot = 7812.49965075494
350  ekin = 7812.49965075494 | epot = 0 | etot = 7812.49965075494
351  ekin = 7812.49965075494 | epot = 0 | etot = 7812.49965075494
352  ekin = 7812.49965075494 | epot = 0 | etot = 7812.49965075494
353  ekin = 7812.49965075494 | epot = 0 | etot = 7812.49965075494
354  ekin = 7812.49965075494 | epot = 0 | etot = 7812.49965075494
355  ekin = 7812.49965075494 | epot = 0 | etot = 7812.49965075494
356  ekin = 7812.49965075494 | epot = 0 | etot = 7812.49965075494
357  ekin = 7812.49965075494 | epot = 0 | etot = 7812.49965075494
358  ekin = 7812.49965075494 | epot = 0 | etot = 7812.49965075494
359  ekin = 7812.49965075494 | epot = 0 | etot = 7812.49965075494
360  ekin = 7812.49965075494 | epot = 0 | etot = 7812.49965075494
361  ekin = 7812.49965075494 | epot = 0 | etot = 7812.49965075494
362  ekin = 7812.49965075494 | epot = 0 | etot = 7812.49965075494
363  ekin = 7812.49965075494 | epot = 0 | etot = 7812.49965075494
364  ekin = 7812.49965075494 | epot = 0 | etot = 7812.49965075494
365  ekin = 7812.49965075494 | epot = 0 | etot = 7812.49965075494
366  ekin = 7812.49965075494 | epot = 0 | etot = 7812.49965075494
367  ekin = 7812.49965075494 | epot = 0 | etot = 7812.49965075494
368  ekin = 7812.49965075494 | epot = 0 | etot = 7812.49965075494
369  ekin = 7812.49965075494 | epot = 0 | etot = 7812.49965075494
370  ekin = 7812.49965075494 | epot = 0 | etot = 7812.49965075494
371  ekin = 7812.49965075494 | epot = 0 | etot = 7812.49965075494
372  ekin = 7812.49965075494 | epot = 0 | etot = 7812.49965075494
373  ekin = 7812.49965075494 | epot = 0 | etot = 7812.49965075494
374  ekin = 7812.49965075494 | epot = 0 | etot = 7812.49965075494
375  ekin = 7812.49965075494 | epot = 0 | etot = 7812.49965075494
376  ekin = 7812.49965075494 | epot = 0 | etot = 7812.49965075494
377  ekin = 7812.49965075494 | epot = 0 | etot = 7812.49965075494
378  ekin = 7812.49965075494 | epot = 0 | etot = 7812.49965075494
379  ekin = 7812.49965075494 | epot = 0 | etot = 7812.49965075494
380  ekin = 7812.49965075494 | epot = 0 | etot = 7812.49965075494
381  ekin = 7812.49965075494 | epot = 0 | etot = 7812.49965075494
382  ekin = 7812.49965075494 | epot = 0 | etot = 7812.49965075494
383  ekin = 7812.49965075494 | epot = 0 | etot = 7812.49965075494
384  ekin = 7812.49965075494 | epot = 0 | etot = 7812.49965075494
385  ekin = 7812.49965075494 | epot = 0 | etot = 7812.49965075494
386  ekin = 7812.49965075494 | epot = 0 | etot = 7812.49965075494
387  ekin = 7812.49965075494 | epot = 0 | etot = 7812.49965075494
388  ekin = 7812.49965075494 | epot = 0 | etot = 7812.49965075494
389  ekin = 7812.49965075494 | epot = 0 | etot = 7812.49965075494
390  ekin = 7812.49965075494 | epot = 0 | etot = 7812.49965075494
391  ekin = 7812.49965075494 | epot = 0 | etot = 7812.49965075494
392  ekin = 7812.49965075494 | epot = 0 | etot = 7812.49965075494
393  ekin = 7812.49965075494 | epot = 0 | etot = 7812.49965075494
394  ekin = 7812.49965075494 | epot = 0 | etot = 7812.49965075494
395  ekin = 7812.49965075494 | epot = 0 | etot = 7812.49965075494
396  ekin = 7812.49965075494 | epot = 0 | etot = 7812.49965075494
397  ekin = 7812.49965075494 | epot = 0 | etot = 7812.49965075494
398  ekin = 7812.49965075494 | epot = 0 | etot = 7812.49965075494
399  ekin = 7812.49965075494 | epot = 0 | etot = 7812.49965075494
400  ekin = 7812.49965075494 | epot = 0 | etot = 7812.49965075494
401  ekin = 7812.49965075494 | epot = 0 | etot = 7812.49965075494
402  ekin = 7812.49965075494 | epot = 0 | etot = 7812.49965075494
403  ekin = 7812.49965075494 | epot = 0 | etot = 7812.49965075494
404  ekin = 7812.49965075494 | epot = 0 | etot = 7812.49965075494
405  ekin = 7812.49965075494 | epot = 0 | etot = 7812.49965075494
406  ekin = 7812.49965075494 | epot = 0 | etot = 7812.49965075494
407  ekin = 7812.49965075494 | epot = 0 | etot = 7812.49965075494
408  ekin = 7812.49965075494 | epot = 0 | etot = 7812.49965075494
409  ekin = 7812.49965075494 | epot = 0 | etot = 7812.49965075494
410  ekin = 7812.49965075494 | epot = 0 | etot = 7812.49965075494
411  ekin = 7812.49965075494 | epot = 0 | etot = 7812.49965075494
412  ekin = 7812.49965075494 | epot = 0 | etot = 7812.49965075494
413  ekin = 7812.49965075494 | epot = 0 | etot = 7812.49965075494
414  ekin = 7812.49965075494 | epot = 0 | etot = 7812.49965075494
415  ekin = 7812.49965075494 | epot = 0 | etot = 7812.49965075494
416  ekin = 7812.49965075494 | epot = 0 | etot = 7812.49965075494
417  ekin = 7812.49965075494 | epot = 0 | etot = 7812.49965075494
418  ekin = 7812.49965075494 | epot = 0 | etot = 7812.49965075494
419  ekin = 7812.49965075494 | epot = 0 | etot = 7812.49965075494
420  ekin = 7812.49965075494 | epot = 0 | etot = 7812.49965075494
421  ekin = 7812.49965075494 | epot = 0 | etot = 7812.49965075494
422  ekin = 7812.49965075494 | epot = 0 | etot = 7812.49965075494
423  ekin = 7812.49965075494 | epot = 0 | etot = 7812.49965075494
424  ekin = 7812.49965075494 | epot = 0 | etot = 7812.49965075494
425  ekin = 7812.49965075494 | epot = 0 | etot = 7812.49965075494
426  ekin = 7812.49965075494 | epot = 0 | etot = 7812.49965075494
427  ekin = 7812.49965075494 | epot = 0 | etot = 7812.49965075494
428  ekin = 7812.49965075494 | epot = 0 | etot = 7812.49965075494
429  ekin = 7812.49965075494 | epot = 0 | etot = 7812.49965075494
430  ekin = 7812.49965075494 | epot = 0 | etot = 7812.49965075494
431  ekin = 7812.49965075494 | epot = 0 | etot = 7812.49965075494
432  ekin = 7812.49965075494 | epot = 0 | etot = 7812.49965075494
433  ekin = 7812.49965075494 | epot = 0 | etot = 7812.49965075494
434  ekin = 7812.49965075494 | epot = 0 | etot = 7812.49965075494
435  ekin = 7812.49965075494 | epot = 0 | etot = 7812.49965075494
436  ekin = 7812.49965075494 | epot = 0 | etot = 7812.49965075494
437  ekin = 7812.49965075494 | epot = 0 | etot = 7812.49965075494
438  ekin = 7812.49965075494 | epot = 0 | etot = 7812.49965075494
439  ekin = 7812.49965075494 | epot = 0 | etot = 7812.49965075494
440  ekin = 7812.49965075494 | epot = 0 | etot = 7812.49965075494
441  ekin = 7812.49965075494 | epot = 0 | etot = 7812.49965075494
442  ekin = 7812.49965075494 | epot = 0 | etot = 7812.49965075494
443  ekin = 7812.49965075494 | epot = 0 | etot = 7812.49965075494
444  ekin = 7812.49965075494 | epot = 0 | etot = 7812.49965075494
445  ekin = 7812.49965075494 | epot = 0 | etot = 7812.49965075494
446  ekin = 7812.49965075494 | epot = 0 | etot = 7812.49965075494
447  ekin = 7812.49965075494 | epot = 0 | etot = 7812.49965075494
448  ekin = 7812.49965075494 | epot = 0 | etot = 7812.49965075494
449  ekin = 7812.49965075494 | epot = 0 | etot = 7812.49965075494
450  ekin = 7812.49965075494 | epot = 0 | etot = 7812.49965075494
451  ekin = 7812.49965075494 | epot = 0 | etot = 7812.49965075494
452  ekin = 7812.49965075494 | epot = 0 | etot = 7812.49965075494
453  ekin = 7812.49965075494 | epot = 0 | etot = 7812.49965075494
454  ekin = 7812.49965075494 | epot = 0 | etot = 7812.49965075494
455  ekin = 7812.49965075494 | epot = 0 | etot = 7812.49965075494
456  ekin = 7812.49965075494 | epot = 0 | etot = 7812.49965075494
457  ekin = 7812.49965075494 | epot = 0 | etot = 7812.49965075494
458  ekin = 7812.49965075494 | epot = 0 | etot = 7812.49965075494
459  ekin = 7812.49965075494 | epot = 0 | etot = 7812.49965075494
460  ekin = 7812.49965075494 | epot = 0 | etot = 7812.49965075494
461  ekin = 7812.49965075494 | epot = 0 | etot = 7812.49965075494
462  ekin = 7812.49965075494 | epot = 0 | etot = 7812.49965075494
463  ekin = 7812.49965075494 | epot = 0 | etot = 7812.49965075494
464  ekin = 7812.49965075494 | epot = 0 | etot = 7812.49965075494
465  ekin = 7812.49965075494 | epot = 0 | etot = 7812.49965075494
466  ekin = 7812.49965075494 | epot = 0 | etot = 7812.49965075494
467  ekin = 7812.49965075494 | epot = 0 | etot = 7812.49965075494
468  ekin = 7812.49965075494 | epot = 0 | etot = 7812.49965075494
469  ekin = 7812.49965075494 | epot = 0 | etot = 7812.49965075494
470  ekin = 7812.49965075494 | epot = 0 | etot = 7812.49965075494
471  ekin = 7812.49965075494 | epot = 0 | etot = 7812.49965075494
472  ekin = 7812.49965075494 | epot = 0 | etot = 7812.49965075494
473  ekin = 7812.49965075494 | epot = 0 | etot = 7812.49965075494
474  ekin = 7812.49965075494 | epot = 0 | etot = 7812.49965075494
475  ekin = 7812.49965075494 | epot = 0 | etot = 7812.49965075494
476  ekin = 7812.49965075494 | epot = 0 | etot = 7812.49965075494
477  ekin = 7812.49965075494 | epot = 0 | etot = 7812.49965075494
478  ekin = 7812.49965075494 | epot = 0 | etot = 7812.49965075494
479  ekin = 7812.49965075494 | epot = 0 | etot = 7812.49965075494
480  ekin = 7812.49965075494 | epot = 0 | etot = 7812.49965075494
481  ekin = 7812.49965075494 | epot = 0 | etot = 7812.49965075494
482  ekin = 7812.49965075494 | epot = 0 | etot = 7812.49965075494
483  ekin = 7812.49965075494 | epot = 0 | etot = 7812.49965075494
484  ekin = 7812.49965075494 | epot = 0 | etot = 7812.49965075494
485  ekin = 7812.49965075494 | epot = 0 | etot = 7812.49965075494
486  ekin = 7812.49965075494 | epot = 0 | etot = 7812.49965075494
487  ekin = 7812.49965075494 | epot = 0 | etot = 7812.49965075494
488  ekin = 7812.49965075494 | epot = 0 | etot = 7812.49965075494
489  ekin = 7812.49965075494 | epot = 0 | etot = 7812.49965075494
490  ekin = 7812.49965075494 | epot = 0 | etot = 7812.49965075494
491  ekin = 7812.49965075494 | epot = 0 | etot = 7812.49965075494
492  ekin = 7812.49965075494 | epot = 0 | etot = 7812.49965075494
493  ekin = 7812.49965075494 | epot = 0 | etot = 7812.49965075494
494  ekin = 7812.49965075494 | epot = 0 | etot = 7812.49965075494
495  ekin = 7812.49965075494 | epot = 0 | etot = 7812.49965075494
496  ekin = 7812.49965075494 | epot = 0 | etot = 7812.49965075494
497  ekin = 7812.49965075494 | epot = 0 | etot = 7812.49965075494
498  ekin = 7812.49965075494 | epot = 0 | etot = 7812.49965075494
499  ekin = 7812.49965075494 | epot = 0 | etot = 7812.49965075494
500  ekin = 7812.49965075494 | epot = 0 | etot = 7812.49965075494
501  ekin = 7812.49965075494 | epot = 0 | etot = 7812.49965075494
502  ekin = 7812.49965075494 | epot = 0 | etot = 7812.49965075494
503  ekin = 7812.49965075494 | epot = 0 | etot = 7812.49965075494
504  ekin = 7812.49965075494 | epot = 0 | etot = 7812.49965075494
505  ekin = 7812.49965075494 | epot = 0 | etot = 7812.49965075494
506  ekin = 7812.49965075494 | epot = 0 | etot = 7812.49965075494
507  ekin = 7812.49965075494 | epot = 0 | etot = 7812.49965075494
508  ekin = 7812.49965075494 | epot = 0 | etot = 7812.49965075494
509  ekin = 7812.49965075494 | epot = 0 | etot = 7812.49965075494
510  ekin = 7812.49965075494 | epot = 0 | etot = 7812.49965075494
511  ekin = 7812.49965075494 | epot = 0 | etot = 7812.49965075494
512  ekin = 7812.49965075494 | epot = 0 | etot = 7812.49965075494
513  ekin = 7812.49965075494 | epot = 0 | etot = 7812.49965075494
514  ekin = 7812.49965075494 | epot = 0 | etot = 7812.49965075494
515  ekin = 7812.49965075494 | epot = 0 | etot = 7812.49965075494
516  ekin = 7812.49965075494 | epot = 0 | etot = 7812.49965075494
517  ekin = 7812.49965075494 | epot = 0 | etot = 7812.49965075494
518  ekin = 7812.49965075494 | epot = 0 | etot = 7812.49965075494
519  ekin = 7812.49965075494 | epot = 0 | etot = 7812.49965075494
520  ekin = 7812.49965075494 | epot = 0 | etot = 7812.49965075494
521  ekin = 7812.49965075494 | epot = 0 | etot = 7812.49965075494
522  ekin = 7812.49965075494 | epot = 0 | etot = 7812.49965075494
523  ekin = 7812.49965075494 | epot = 0 | etot = 7812.49965075494
524  ekin = 7812.49965075494 | epot = 0 | etot = 7812.49965075494
525  ekin = 7812.49965075494 | epot = 0 | etot = 7812.49965075494
526  ekin = 7812.49965075494 | epot = 0 | etot = 7812.49965075494
527  ekin = 7812.49965075494 | epot = 0 | etot = 7812.49965075494
528  ekin = 7812.49965075494 | epot = 0 | etot = 7812.49965075494
529  ekin = 7812.49965075494 | epot = 0 | etot = 7812.49965075494
530  ekin = 7812.49965075494 | epot = 0 | etot = 7812.49965075494
531  ekin = 7812.49965075494 | epot = 0 | etot = 7812.49965075494
532  ekin = 7812.49965075494 | epot = 0 | etot = 7812.49965075494
533  ekin = 7812.49965075494 | epot = 0 | etot = 7812.49965075494
534  ekin = 7812.49965075494 | epot = 0 | etot = 7812.49965075494
535  ekin = 7812.49965075494 | epot = 0 | etot = 7812.49965075494
536  ekin = 7812.49965075494 | epot = 0 | etot = 7812.49965075494
537  ekin = 7812.49965075494 | epot = 0 | etot = 7812.49965075494
538  ekin = 7812.49965075494 | epot = 0 | etot = 7812.49965075494
539  ekin = 7812.49965075494 | epot = 0 | etot = 7812.49965075494
540  ekin = 7812.49965075494 | epot = 0 | etot = 7812.49965075494
541  ekin = 7812.49965075494 | epot = 0 | etot = 7812.49965075494
542  ekin = 7812.49965075494 | epot = 0 | etot = 7812.49965075494
543  ekin = 7812.49965075494 | epot = 0 | etot = 7812.49965075494
544  ekin = 7812.49965075494 | epot = 0 | etot = 7812.49965075494
545  ekin = 7812.49965075494 | epot = 0 | etot = 7812.49965075494
546  ekin = 7812.49965075494 | epot = 0 | etot = 7812.49965075494
547  ekin = 7812.49965075494 | epot = 0 | etot = 7812.49965075494
548  ekin = 7812.49965075494 | epot = 0 | etot = 7812.49965075494
549  ekin = 7812.49965075494 | epot = 0 | etot = 7812.49965075494
550  ekin = 7812.49965075494 | epot = 0 | etot = 7812.49965075494
551  ekin = 7812.49965075494 | epot = 0 | etot = 7812.49965075494
552  ekin = 7812.49965075494 | epot = 0 | etot = 7812.49965075494
553  ekin = 7812.49965075494 | epot = 0 | etot = 7812.49965075494
554  ekin = 7812.49965075494 | epot = 0 | etot = 7812.49965075494
555  ekin = 7812.49965075494 | epot = 0 | etot = 7812.49965075494
556  ekin = 7812.49965075494 | epot = 0 | etot = 7812.49965075494
557  ekin = 7812.49965075494 | epot = 0 | etot = 7812.49965075494
558  ekin = 7812.49965075494 | epot = 0 | etot = 7812.49965075494
559  ekin = 7812.49965075494 | epot = 0 | etot = 7812.49965075494
560  ekin = 7812.49965075494 | epot = 0 | etot = 7812.49965075494
561  ekin = 7812.49965075494 | epot = 0 | etot = 7812.49965075494
562  ekin = 7812.49965075494 | epot = 0 | etot = 7812.49965075494
563  ekin = 7812.49965075494 | epot = 0 | etot = 7812.49965075494
564  ekin = 7812.49965075494 | epot = 0 | etot = 7812.49965075494
565  ekin = 7812.49965075494 | epot = 0 | etot = 7812.49965075494
566  ekin = 7812.49965075494 | epot = 0 | etot = 7812.49965075494
567  ekin = 7812.49965075494 | epot = 0 | etot = 7812.49965075494
568  ekin = 7812.49965075494 | epot = 0 | etot = 7812.49965075494
569  ekin = 7812.49965075494 | epot = 0 | etot = 7812.49965075494
570  ekin = 7812.49965075494 | epot = 0 | etot = 7812.49965075494
571  ekin = 7812.49965075494 | epot = 0 | etot = 7812.49965075494
572  ekin = 7812.49965075494 | epot = 0 | etot = 7812.49965075494
573  ekin = 7812.49965075494 | epot = 0 | etot = 7812.49965075494
574  ekin = 7812.49965075494 | epot = 0 | etot = 7812.49965075494
575  ekin = 7812.49965075494 | epot = 0 | etot = 7812.49965075494
576  ekin = 7812.49965075494 | epot = 0 | etot = 7812.49965075494
577  ekin = 7812.49965075494 | epot = 0 | etot = 7812.49965075494
578  ekin = 7812.49965075494 | epot = 0 | etot = 7812.49965075494
579  ekin = 7812.49965075494 | epot = 0 | etot = 7812.49965075494
580  ekin = 7812.49965075494 | epot = 0 | etot = 7812.49965075494
581  ekin = 7812.49965075494 | epot = 0 | etot = 7812.49965075494
582  ekin = 7812.49965075494 | epot = 0 | etot = 7812.49965075494
583  ekin = 7812.49965075494 | epot = 0 | etot = 7812.49965075494
584  ekin = 7812.49965075494 | epot = 0 | etot = 7812.49965075494
585  ekin = 7812.49965075494 | epot = 0 | etot = 7812.49965075494
586  ekin = 7812.49965075494 | epot = 0 | etot = 7812.49965075494
587  ekin = 7812.49965075494 | epot = 0 | etot = 7812.49965075494
588  ekin = 7812.49965075494 | epot = 0 | etot = 7812.49965075494
589  ekin = 7812.49965075494 | epot = 0 | etot = 7812.49965075494
590  ekin = 7812.49965075494 | epot = 0 | etot = 7812.49965075494
591  ekin = 7812.49965075494 | epot = 0 | etot = 7812.49965075494
592  ekin = 7812.49965075494 | epot = 0 | etot = 7812.49965075494
593  ekin = 7812.49965075494 | epot = 0 | etot = 7812.49965075494
594  ekin = 7812.49965075494 | epot = 0 | etot = 7812.49965075494
595  ekin = 7812.49965075494 | epot = 0 | etot = 7812.49965075494
596  ekin = 7812.49965075494 | epot = 0 | etot = 7812.49965075494
597  ekin = 7812.49965075494 | epot = 0 | etot = 7812.49965075494
598  ekin = 7812.49965075494 | epot = 0 | etot = 7812.49965075494
599  ekin = 7812.49965075494 | epot = 0 | etot = 7812.49965075494
600  ekin = 7812.49965075494 | epot = 0 | etot = 7812.49965075494
601  ekin = 7812.49965075494 | epot = 0 | etot = 7812.49965075494
602  ekin = 7812.49965075494 | epot = 0 | etot = 7812.49965075494
603  ekin = 7812.49965075494 | epot = 0 | etot = 7812.49965075494
604  ekin = 7812.49965075494 | epot = 0 | etot = 7812.49965075494
605  ekin = 7812.49965075494 | epot = 0 | etot = 7812.49965075494
606  ekin = 7812.49965075494 | epot = 0 | etot = 7812.49965075494
607  ekin = 7812.49965075494 | epot = 0 | etot = 7812.49965075494
608  ekin = 7812.49965075494 | epot = 0 | etot = 7812.49965075494
609  ekin = 7812.49965075494 | epot = 0 | etot = 7812.49965075494
610  ekin = 7812.49965075494 | epot = 0 | etot = 7812.49965075494
611  ekin = 7812.49965075494 | epot = 0 | etot = 7812.49965075494
612  ekin = 7812.49965075494 | epot = 0 | etot = 7812.49965075494
613  ekin = 7812.49965075494 | epot = 0 | etot = 7812.49965075494
614  ekin = 7812.49965075494 | epot = 0 | etot = 7812.49965075494
615  ekin = 7812.49965075494 | epot = 0 | etot = 7812.49965075494
616  ekin = 7812.49965075494 | epot = 0 | etot = 7812.49965075494
617  ekin = 7812.49965075494 | epot = 0 | etot = 7812.49965075494
618  ekin = 7812.49965075494 | epot = 0 | etot = 7812.49965075494
619  ekin = 7812.49965075494 | epot = 0 | etot = 7812.49965075494
620  ekin = 7812.49965075494 | epot = 0 | etot = 7812.49965075494
621  ekin = 7812.49965075494 | epot = 0 | etot = 7812.49965075494
622  ekin = 7812.49965075494 | epot = 0 | etot = 7812.49965075494
623  ekin = 7812.49965075494 | epot = 0 | etot = 7812.49965075494
624  ekin = 7812.49965075494 | epot = 0 | etot = 7812.49965075494
625  ekin = 7812.49965075494 | epot = 0 | etot = 7812.49965075494
626  ekin = 7812.49965075494 | epot = 0 | etot = 7812.49965075494
627  ekin = 7812.49965075494 | epot = 0 | etot = 7812.49965075494
628  ekin = 7812.49965075494 | epot = 0 | etot = 7812.49965075494
629  ekin = 7812.49965075494 | epot = 0 | etot = 7812.49965075494
630  ekin = 7812.49965075494 | epot = 0 | etot = 7812.49965075494
631  ekin = 7812.49965075494 | epot = 0 | etot = 7812.49965075494
632  ekin = 7812.49965075494 | epot = 0 | etot = 7812.49965075494
633  ekin = 7812.49965075494 | epot = 0 | etot = 7812.49965075494
634  ekin = 7812.49965075494 | epot = 0 | etot = 7812.49965075494
635  ekin = 7812.49965075494 | epot = 0 | etot = 7812.49965075494
636  ekin = 7812.49965075494 | epot = 0 | etot = 7812.49965075494
637  ekin = 7812.49965075494 | epot = 0 | etot = 7812.49965075494
638  ekin = 7812.49965075494 | epot = 0 | etot = 7812.49965075494
639  ekin = 7812.49965075494 | epot = 0 | etot = 7812.49965075494
640  ekin = 7812.49965075494 | epot = 0 | etot = 7812.49965075494
641  ekin = 7812.49965075494 | epot = 0 | etot = 7812.49965075494
642  ekin = 7812.49965075494 | epot = 0 | etot = 7812.49965075494
643  ekin = 7812.49965075494 | epot = 0 | etot = 7812.49965075494
644  ekin = 7812.49965075494 | epot = 0 | etot = 7812.49965075494
645  ekin = 7812.49965075494 | epot = 0 | etot = 7812.49965075494
646  ekin = 7812.49965075494 | epot = 0 | etot = 7812.49965075494
647  ekin = 7812.49965075494 | epot = 0 | etot = 7812.49965075494
648  ekin = 7812.49965075494 | epot = 0 | etot = 7812.49965075494
649  ekin = 7812.49965075494 | epot = 0 | etot = 7812.49965075494
650  ekin = 7812.49965075494 | epot = 0 | etot = 7812.49965075494
651  ekin = 7812.49965075494 | epot = 0 | etot = 7812.49965075494
652  ekin = 7812.49965075494 | epot = 0 | etot = 7812.49965075494
653  ekin = 7812.49965075494 | epot = 0 | etot = 7812.49965075494
654  ekin = 7812.49965075494 | epot = 0 | etot = 7812.49965075494
655  ekin = 7812.49965075494 | epot = 0 | etot = 7812.49965075494
656  ekin = 7812.49965075494 | epot = 0 | etot = 7812.49965075494
657  ekin = 7812.49965075494 | epot = 0 | etot = 7812.49965075494
658  ekin = 7812.49965075494 | epot = 0 | etot = 7812.49965075494
659  ekin = 7812.49965075494 | epot = 0 | etot = 7812.49965075494
660  ekin = 7812.49965075494 | epot = 0 | etot = 7812.49965075494
661  ekin = 7812.49965075494 | epot = 0 | etot = 7812.49965075494
662  ekin = 7812.49965075494 | epot = 0 | etot = 7812.49965075494
663  ekin = 7812.49965075494 | epot = 0 | etot = 7812.49965075494
664  ekin = 7812.49965075494 | epot = 0 | etot = 7812.49965075494
665  ekin = 7812.49965075494 | epot = 0 | etot = 7812.49965075494
666  ekin = 7812.49965075494 | epot = 0 | etot = 7812.49965075494
667  ekin = 7812.49965075494 | epot = 0 | etot = 7812.49965075494
668  ekin = 7812.49965075494 | epot = 0 | etot = 7812.49965075494
669  ekin = 7812.49965075494 | epot = 0 | etot = 7812.49965075494
670  ekin = 7812.49965075494 | epot = 0 | etot = 7812.49965075494
671  ekin = 7812.49965075494 | epot = 0 | etot = 7812.49965075494
672  ekin = 7812.49965075494 | epot = 0 | etot = 7812.49965075494
673  ekin = 7812.49965075494 | epot = 0 | etot = 7812.49965075494
674  ekin = 7812.49965075494 | epot = 0 | etot = 7812.49965075494
675  ekin = 7812.49965075494 | epot = 0 | etot = 7812.49965075494
676  ekin = 7812.49965075494 | epot = 0 | etot = 7812.49965075494
677  ekin = 7812.49965075494 | epot = 0 | etot = 7812.49965075494
678  ekin = 7812.49965075494 | epot = 0 | etot = 7812.49965075494
679  ekin = 7812.49965075494 | epot = 0 | etot = 7812.49965075494
680  ekin = 7812.49965075494 | epot = 0 | etot = 7812.49965075494
681  ekin = 7812.49965075494 | epot = 0 | etot = 7812.49965075494
682  ekin = 7812.49965075494 | epot = 0 | etot = 7812.49965075494
683  ekin = 7812.49965075494 | epot = 0 | etot = 7812.49965075494
684  ekin = 7812.49965075494 | epot = 0 | etot = 7812.49965075494
685  ekin = 7812.49965075494 | epot = 0 | etot = 7812.49965075494
686  ekin = 7812.49965075494 | epot = 0 | etot = 7812.49965075494
687  ekin = 7812.49965075494 | epot = 0 | etot = 7812.49965075494
688  ekin = 7812.49965075494 | epot = 0 | etot = 7812.49965075494
689  ekin = 7812.49965075494 | epot = 0 | etot = 7812.49965075494
690  ekin = 7812.49965075494 | epot = 0 | etot = 7812.49965075494
691  ekin = 7812.49965075494 | epot = 0 | etot = 7812.49965075494
692  ekin = 7812.49965075494 | epot = 0 | etot = 7812.49965075494
693  ekin = 7812.49965075494 | epot = 0 | etot = 7812.49965075494
694  ekin = 7812.49965075494 | epot = 0 | etot = 7812.49965075494
695  ekin = 7812.49965075494 | epot = 0 | etot = 7812.49965075494
696  ekin = 7812.49965075494 | epot = 0 | etot = 7812.49965075494
697  ekin = 7812.49965075494 | epot = 0 | etot = 7812.49965075494
698  ekin = 7812.49965075494 | epot = 0 | etot = 7812.49965075494
699  ekin = 7812.49965075494 | epot = 0 | etot = 7812.49965075494
700  ekin = 7812.49965075494 | epot = 0 | etot = 7812.49965075494
701  ekin = 7812.49965075494 | epot = 0 | etot = 7812.49965075494
702  ekin = 7812.49965075494 | epot = 0 | etot = 7812.49965075494
703  ekin = 7812.49965075494 | epot = 0 | etot = 7812.49965075494
704  ekin = 7812.49965075494 | epot = 0 | etot = 7812.49965075494
705  ekin = 7812.49965075494 | epot = 0 | etot = 7812.49965075494
706  ekin = 7812.49965075494 | epot = 0 | etot = 7812.49965075494
707  ekin = 7812.49965075494 | epot = 0 | etot = 7812.49965075494
708  ekin = 7812.49965075494 | epot = 0 | etot = 7812.49965075494
709  ekin = 7812.49965075494 | epot = 0 | etot = 7812.49965075494
710  ekin = 7812.49965075494 | epot = 0 | etot = 7812.49965075494
711  ekin = 7812.49965075494 | epot = 0 | etot = 7812.49965075494
712  ekin = 7812.49965075494 | epot = 0 | etot = 7812.49965075494
713  ekin = 7812.49965075494 | epot = 0 | etot = 7812.49965075494
714  ekin = 7812.49965075494 | epot = 0 | etot = 7812.49965075494
715  ekin = 7812.49965075494 | epot = 0 | etot = 7812.49965075494
716  ekin = 7812.49965075494 | epot = 0 | etot = 7812.49965075494
717  ekin = 7812.49965075494 | epot = 0 | etot = 7812.49965075494
718  ekin = 7812.49965075494 | epot = 0 | etot = 7812.49965075494
719  ekin = 7812.49965075494 | epot = 0 | etot = 7812.49965075494
720  ekin = 7812.49965075494 | epot = 0 | etot = 7812.49965075494
721  ekin = 7812.49965075494 | epot = 0 | etot = 7812.49965075494
722  ekin = 7812.49965075494 | epot = 0 | etot = 7812.49965075494
723  ekin = 7812.49965075494 | epot = 0 | etot = 7812.49965075494
724  ekin = 7812.49965075494 | epot = 0 | etot = 7812.49965075494
725  ekin = 7812.49965075494 | epot = 0 | etot = 7812.49965075494
726  ekin = 7812.49965075494 | epot = 0 | etot = 7812.49965075494
727  ekin = 7812.49965075494 | epot = 0 | etot = 7812.49965075494
728  ekin = 7812.49965075494 | epot = 0 | etot = 7812.49965075494
729  ekin = 7812.49965075494 | epot = 0 | etot = 7812.49965075494
730  ekin = 7812.49965075494 | epot = 0 | etot = 7812.49965075494
731  ekin = 7812.49965075494 | epot = 0 | etot = 7812.49965075494
732  ekin = 7812.49965075494 | epot = 0 | etot = 7812.49965075494
733  ekin = 7812.49965075494 | epot = 0 | etot = 7812.49965075494
734  ekin = 7812.49965075494 | epot = 0 | etot = 7812.49965075494
735  ekin = 7812.49965075494 | epot = 0 | etot = 7812.49965075494
736  ekin = 7812.49965075494 | epot = 0 | etot = 7812.49965075494
737  ekin = 7812.49965075494 | epot = 0 | etot = 7812.49965075494
738  ekin = 7812.49965075494 | epot = 0 | etot = 7812.49965075494
739  ekin = 7812.49965075494 | epot = 0 | etot = 7812.49965075494
740  ekin = 7812.49965075494 | epot = 0 | etot = 7812.49965075494
741  ekin = 7812.49965075494 | epot = 0 | etot = 7812.49965075494
742  ekin = 7812.49965075494 | epot = 0 | etot = 7812.49965075494
743  ekin = 7812.49965075494 | epot = 0 | etot = 7812.49965075494
744  ekin = 7812.49965075494 | epot = 0 | etot = 7812.49965075494
745  ekin = 7812.49965075494 | epot = 0 | etot = 7812.49965075494
746  ekin = 7812.49965075494 | epot = 0 | etot = 7812.49965075494
747  ekin = 7812.49965075494 | epot = 0 | etot = 7812.49965075494
748  ekin = 7812.49965075494 | epot = 0 | etot = 7812.49965075494
749  ekin = 7812.49965075494 | epot = 0 | etot = 7812.49965075494
750  ekin = 7812.49965075494 | epot = 0 | etot = 7812.49965075494
751  ekin = 7812.49965075494 | epot = 0 | etot = 7812.49965075494
752  ekin = 7812.49965075494 | epot = 0 | etot = 7812.49965075494
753  ekin = 7812.49965075494 | epot = 0 | etot = 7812.49965075494
754  ekin = 7812.49965075494 | epot = 0 | etot = 7812.49965075494
755  ekin = 7812.49965075494 | epot = 0 | etot = 7812.49965075494
756  ekin = 7812.49965075494 | epot = 0 | etot = 7812.49965075494
757  ekin = 7812.49965075494 | epot = 0 | etot = 7812.49965075494
758  ekin = 7812.49965075494 | epot = 0 | etot = 7812.49965075494
759  ekin = 7812.49965075494 | epot = 0 | etot = 7812.49965075494
760  ekin = 7812.49965075494 | epot = 0 | etot = 7812.49965075494
761  ekin = 7812.49965075494 | epot = 0 | etot = 7812.49965075494
762  ekin = 7812.49965075494 | epot = 0 | etot = 7812.49965075494
763  ekin = 7812.49965075494 | epot = 0 | etot = 7812.49965075494
764  ekin = 7812.49965075494 | epot = 0 | etot = 7812.49965075494
765  ekin = 7812.49965075494 | epot = 0 | etot = 7812.49965075494
766  ekin = 7812.49965075494 | epot = 0 | etot = 7812.49965075494
767  ekin = 7812.49965075494 | epot = 0 | etot = 7812.49965075494
768  ekin = 7812.49965075494 | epot = 0 | etot = 7812.49965075494
769  ekin = 7812.49965075494 | epot = 0 | etot = 7812.49965075494
770  ekin = 7812.49965075494 | epot = 0 | etot = 7812.49965075494
771  ekin = 7812.49965075494 | epot = 0 | etot = 7812.49965075494
772  ekin = 7812.49965075494 | epot = 0 | etot = 7812.49965075494
773  ekin = 7812.49965075494 | epot = 0 | etot = 7812.49965075494
774  ekin = 7812.49965075494 | epot = 0 | etot = 7812.49965075494
775  ekin = 7812.49965075494 | epot = 0 | etot = 7812.49965075494
776  ekin = 7812.49965075494 | epot = 0 | etot = 7812.49965075494
777  ekin = 7812.49965075494 | epot = 0 | etot = 7812.49965075494
778  ekin = 7812.49965075494 | epot = 0 | etot = 7812.49965075494
779  ekin = 7812.49965075494 | epot = 0 | etot = 7812.49965075494
780  ekin = 7812.49965075494 | epot = 0 | etot = 7812.49965075494
781  ekin = 7812.49965075494 | epot = 0 | etot = 7812.49965075494
782  ekin = 7812.49965075494 | epot = 0 | etot = 7812.49965075494
783  ekin = 7812.49965075494 | epot = 0 | etot = 7812.49965075494
784  ekin = 7812.49965075494 | epot = 0 | etot = 7812.49965075494
785  ekin = 7812.49965075494 | epot = 0 | etot = 7812.49965075494
786  ekin = 7812.49965075494 | epot = 0 | etot = 7812.49965075494
787  ekin = 7812.49965075494 | epot = 0 | etot = 7812.49965075494
788  ekin = 7812.49965075494 | epot = 0 | etot = 7812.49965075494
789  ekin = 7812.49965075494 | epot = 0 | etot = 7812.49965075494
790  ekin = 7812.49965075494 | epot = 0 | etot = 7812.49965075494
791  ekin = 7812.49965075494 | epot = 0 | etot = 7812.49965075494
792  ekin = 7812.49965075494 | epot = 0 | etot = 7812.49965075494
793  ekin = 7812.49965075494 | epot = 0 | etot = 7812.49965075494
794  ekin = 7812.49965075494 | epot = 0 | etot = 7812.49965075494
795  ekin = 7812.49965075494 | epot = 0 | etot = 7812.49965075494
796  ekin = 7812.49965075494 | epot = 0 | etot = 7812.49965075494
797  ekin = 7812.49965075494 | epot = 0 | etot = 7812.49965075494
798  ekin = 7812.49965075494 | epot = 0 | etot = 7812.49965075494
799  ekin = 7812.49965075494 | epot = 0 | etot = 7812.49965075494
800  ekin = 7812.49965075494 | epot = 0 | etot = 7812.49965075494
801  ekin = 7812.49965075494 | epot = 0 | etot = 7812.49965075494
802  ekin = 7812.49965075494 | epot = 0 | etot = 7812.49965075494
803  ekin = 7812.49965075494 | epot = 0 | etot = 7812.49965075494
804  ekin = 7812.49965075494 | epot = 0 | etot = 7812.49965075494
805  ekin = 7812.49965075494 | epot = 0 | etot = 7812.49965075494
806  ekin = 7812.49965075494 | epot = 0 | etot = 7812.49965075494
807  ekin = 7812.49965075494 | epot = 0 | etot = 7812.49965075494
808  ekin = 7812.49965075494 | epot = 0 | etot = 7812.49965075494
809  ekin = 7812.49965075494 | epot = 0 | etot = 7812.49965075494
810  ekin = 7812.49965075494 | epot = 0 | etot = 7812.49965075494
811  ekin = 7812.49965075494 | epot = 0 | etot = 7812.49965075494
812  ekin = 7812.49965075494 | epot = 0 | etot = 7812.49965075494
813  ekin = 7812.49965075494 | epot = 0 | etot = 7812.49965075494
814  ekin = 7812.49965075494 | epot = 0 | etot = 7812.49965075494
815  ekin = 7812.49965075494 | epot = 0 | etot = 7812.49965075494
816  ekin = 7812.49965075494 | epot = 0 | etot = 7812.49965075494
817  ekin = 7812.49965075494 | epot = 0 | etot = 7812.49965075494
818  ekin = 7812.49965075494 | epot = 0 | etot = 7812.49965075494
819  ekin = 7812.49965075494 | epot = 0 | etot = 7812.49965075494
820  ekin = 7812.49965075494 | epot = 0 | etot = 7812.49965075494
821  ekin = 7812.49965075494 | epot = 0 | etot = 7812.49965075494
822  ekin = 7812.49965075494 | epot = 0 | etot = 7812.49965075494
823  ekin = 7812.49965075494 | epot = 0 | etot = 7812.49965075494
824  ekin = 7812.49965075494 | epot = 0 | etot = 7812.49965075494
825  ekin = 7812.49965075494 | epot = 0 | etot = 7812.49965075494
826  ekin = 7812.49965075494 | epot = 0 | etot = 7812.49965075494
827  ekin = 7812.49965075494 | epot = 0 | etot = 7812.49965075494
828  ekin = 7812.49965075494 | epot = 0 | etot = 7812.49965075494
829  ekin = 7812.49965075494 | epot = 0 | etot = 7812.49965075494
830  ekin = 7812.49965075494 | epot = 0 | etot = 7812.49965075494
831  ekin = 7812.49965075494 | epot = 0 | etot = 7812.49965075494
832  ekin = 7812.49965075494 | epot = 0 | etot = 7812.49965075494
833  ekin = 7812.49965075494 | epot = 0 | etot = 7812.49965075494
834  ekin = 7812.49965075494 | epot = 0 | etot = 7812.49965075494
835  ekin = 7812.49965075494 | epot = 0 | etot = 7812.49965075494
836  ekin = 7812.49965075494 | epot = 0 | etot = 7812.49965075494
837  ekin = 7812.49965075494 | epot = 0 | etot = 7812.49965075494
838  ekin = 7812.49965075494 | epot = 0 | etot = 7812.49965075494
839  ekin = 7812.49965075494 | epot = 0 | etot = 7812.49965075494
840  ekin = 7812.49965075494 | epot = 0 | etot = 7812.49965075494
841  ekin = 7812.49965075494 | epot = 0 | etot = 7812.49965075494
842  ekin = 7812.49965075494 | epot = 0 | etot = 7812.49965075494
843  ekin = 7812.49965075494 | epot = 0 | etot = 7812.49965075494
844  ekin = 7812.49965075494 | epot = 0 | etot = 7812.49965075494
845  ekin = 7812.49965075494 | epot = 0 | etot = 7812.49965075494
846  ekin = 7812.49965075494 | epot = 0 | etot = 7812.49965075494
847  ekin = 7812.49965075494 | epot = 0 | etot = 7812.49965075494
848  ekin = 7812.49965075494 | epot = 0 | etot = 7812.49965075494
849  ekin = 7812.49965075494 | epot = 0 | etot = 7812.49965075494
850  ekin = 7812.49965075494 | epot = 0 | etot = 7812.49965075494
851  ekin = 7812.49965075494 | epot = 0 | etot = 7812.49965075494
852  ekin = 7812.49965075494 | epot = 0 | etot = 7812.49965075494
853  ekin = 7812.49965075494 | epot = 0 | etot = 7812.49965075494
854  ekin = 7812.49965075494 | epot = 0 | etot = 7812.49965075494
855  ekin = 7812.49965075494 | epot = 0 | etot = 7812.49965075494
856  ekin = 7812.49965075494 | epot = 0 | etot = 7812.49965075494
857  ekin = 7812.49965075494 | epot = 0 | etot = 7812.49965075494
858  ekin = 7812.49965075494 | epot = 0 | etot = 7812.49965075494
859  ekin = 7812.49965075494 | epot = 0 | etot = 7812.49965075494
860  ekin = 7812.49965075494 | epot = 0 | etot = 7812.49965075494
861  ekin = 7812.49965075494 | epot = 0 | etot = 7812.49965075494
862  ekin = 7812.49965075494 | epot = 0 | etot = 7812.49965075494
863  ekin = 7812.49965075494 | epot = 0 | etot = 7812.49965075494
864  ekin = 7812.49965075494 | epot = 0 | etot = 7812.49965075494
865  ekin = 7812.49965075494 | epot = 0 | etot = 7812.49965075494
866  ekin = 7812.49965075494 | epot = 0 | etot = 7812.49965075494
867  ekin = 7812.49965075494 | epot = 0 | etot = 7812.49965075494
868  ekin = 7812.49965075494 | epot = 0 | etot = 7812.49965075494
869  ekin = 7812.49965075494 | epot = 0 | etot = 7812.49965075494
870  ekin = 7812.49965075494 | epot = 0 | etot = 7812.49965075494
871  ekin = 7812.49965075494 | epot = 0 | etot = 7812.49965075494
872  ekin = 7812.49965075494 | epot = 0 | etot = 7812.49965075494
873  ekin = 7812.49965075494 | epot = 0 | etot = 7812.49965075494
874  ekin = 7812.49965075494 | epot = 0 | etot = 7812.49965075494
875  ekin = 7812.49965075494 | epot = 0 | etot = 7812.49965075494
876  ekin = 7812.49965075494 | epot = 0 | etot = 7812.49965075494
877  ekin = 7812.49965075494 | epot = 0 | etot = 7812.49965075494
878  ekin = 7812.49965075494 | epot = 0 | etot = 7812.49965075494
879  ekin = 7812.49965075494 | epot = 0 | etot = 7812.49965075494
880  ekin = 7812.49965075494 | epot = 0 | etot = 7812.49965075494
881  ekin = 7812.49965075494 | epot = 0 | etot = 7812.49965075494
882  ekin = 7812.49965075494 | epot = 0 | etot = 7812.49965075494
883  ekin = 7812.49965075494 | epot = 0 | etot = 7812.49965075494
884  ekin = 7812.49965075494 | epot = 0 | etot = 7812.49965075494
885  ekin = 7812.49965075494 | epot = 0 | etot = 7812.49965075494
886  ekin = 7812.49965075494 | epot = 0 | etot = 7812.49965075494
887  ekin = 7812.49965075494 | epot = 0 | etot = 7812.49965075494
888  ekin = 7812.49965075494 | epot = 0 | etot = 7812.49965075494
889  ekin = 7812.49965075494 | epot = 0 | etot = 7812.49965075494
890  ekin = 7812.49965075494 | epot = 0 | etot = 7812.49965075494
891  ekin = 7812.49965075494 | epot = 0 | etot = 7812.49965075494
892  ekin = 7812.49965075494 | epot = 0 | etot = 7812.49965075494
893  ekin = 7812.49965075494 | epot = 0 | etot = 7812.49965075494
894  ekin = 7812.49965075494 | epot = 0 | etot = 7812.49965075494
895  ekin = 7812.49965075494 | epot = 0 | etot = 7812.49965075494
896  ekin = 7812.49965075494 | epot = 0 | etot = 7812.49965075494
897  ekin = 7812.49965075494 | epot = 0 | etot = 7812.49965075494
898  ekin = 7812.49965075494 | epot = 0 | etot = 7812.49965075494
899  ekin = 7812.49965075494 | epot = 0 | etot = 7812.49965075494
900  ekin = 7812.49965075494 | epot = 0 | etot = 7812.49965075494
901  ekin = 7812.49965075494 | epot = 0 | etot = 7812.49965075494
902  ekin = 7812.49965075494 | epot = 0 | etot = 7812.49965075494
903  ekin = 7812.49965075494 | epot = 0 | etot = 7812.49965075494
904  ekin = 7812.49965075494 | epot = 0 | etot = 7812.49965075494
905  ekin = 7812.49965075494 | epot = 0 | etot = 7812.49965075494
906  ekin = 7812.49965075494 | epot = 0 | etot = 7812.49965075494
907  ekin = 7812.49965075494 | epot = 0 | etot = 7812.49965075494
908  ekin = 7812.49965075494 | epot = 0 | etot = 7812.49965075494
909  ekin = 7812.49965075494 | epot = 0 | etot = 7812.49965075494
910  ekin = 7812.49965075494 | epot = 0 | etot = 7812.49965075494
911  ekin = 7812.49965075494 | epot = 0 | etot = 7812.49965075494
912  ekin = 7812.49965075494 | epot = 0 | etot = 7812.49965075494
913  ekin = 7812.49965075494 | epot = 0 | etot = 7812.49965075494
914  ekin = 7812.49965075494 | epot = 0 | etot = 7812.49965075494
915  ekin = 7812.49965075494 | epot = 0 | etot = 7812.49965075494
916  ekin = 7812.49965075494 | epot = 0 | etot = 7812.49965075494
917  ekin = 7812.49965075494 | epot = 0 | etot = 7812.49965075494
918  ekin = 7812.49965075494 | epot = 0 | etot = 7812.49965075494
919  ekin = 7812.49965075494 | epot = 0 | etot = 7812.49965075494
920  ekin = 7812.49965075494 | epot = 0 | etot = 7812.49965075494
921  ekin = 7812.49965075494 | epot = 0 | etot = 7812.49965075494
922  ekin = 7812.49965075494 | epot = 0 | etot = 7812.49965075494
923  ekin = 7812.49965075494 | epot = 0 | etot = 7812.49965075494
924  ekin = 7812.49965075494 | epot = 0 | etot = 7812.49965075494
925  ekin = 7812.49965075494 | epot = 0 | etot = 7812.49965075494
926  ekin = 7812.49965075494 | epot = 0 | etot = 7812.49965075494
927  ekin = 7812.49965075494 | epot = 0 | etot = 7812.49965075494
928  ekin = 7812.49965075494 | epot = 0 | etot = 7812.49965075494
929  ekin = 7812.49965075494 | epot = 0 | etot = 7812.49965075494
930  ekin = 7812.49965075494 | epot = 0 | etot = 7812.49965075494
931  ekin = 7812.49965075494 | epot = 0 | etot = 7812.49965075494
932  ekin = 7812.49965075494 | epot = 0 | etot = 7812.49965075494
933  ekin = 7812.49965075494 | epot = 0 | etot = 7812.49965075494
934  ekin = 7812.49965075494 | epot = 0 | etot = 7812.49965075494
935  ekin = 7812.49965075494 | epot = 0 | etot = 7812.49965075494
936  ekin = 7812.49965075494 | epot = 0 | etot = 7812.49965075494
937  ekin = 7812.49965075494 | epot = 0 | etot = 7812.49965075494
938  ekin = 7812.49965075494 | epot = 0 | etot = 7812.49965075494
939  ekin = 7812.49965075494 | epot = 0 | etot = 7812.49965075494
940  ekin = 7812.49965075494 | epot = 0 | etot = 7812.49965075494
941  ekin = 7812.49965075494 | epot = 0 | etot = 7812.49965075494
942  ekin = 7812.49965075494 | epot = 0 | etot = 7812.49965075494
943  ekin = 7812.49965075494 | epot = 0 | etot = 7812.49965075494
944  ekin = 7812.49965075494 | epot = 0 | etot = 7812.49965075494
945  ekin = 7812.49965075494 | epot = 0 | etot = 7812.49965075494
946  ekin = 7812.49965075494 | epot = 0 | etot = 7812.49965075494
947  ekin = 7812.49965075494 | epot = 0 | etot = 7812.49965075494
948  ekin = 7812.49965075494 | epot = 0 | etot = 7812.49965075494
949  ekin = 7812.49965075494 | epot = 0 | etot = 7812.49965075494
950  ekin = 7812.49965075494 | epot = 0 | etot = 7812.49965075494
951  ekin = 7812.49965075494 | epot = 0 | etot = 7812.49965075494
952  ekin = 7812.49965075494 | epot = 0 | etot = 7812.49965075494
953  ekin = 7812.49965075494 | epot = 0 | etot = 7812.49965075494
954  ekin = 7812.49965075494 | epot = 0 | etot = 7812.49965075494
955  ekin = 7812.49965075494 | epot = 0 | etot = 7812.49965075494
956  ekin = 7812.49965075494 | epot = 0 | etot = 7812.49965075494
957  ekin = 7812.49965075494 | epot = 0 | etot = 7812.49965075494
958  ekin = 7812.49965075494 | epot = 0 | etot = 7812.49965075494
959  ekin = 7812.49965075494 | epot = 0 | etot = 7812.49965075494
960  ekin = 7812.49965075494 | epot = 0 | etot = 7812.49965075494
961  ekin = 7812.49965075494 | epot = 0 | etot = 7812.49965075494
962  ekin = 7812.49965075494 | epot = 0 | etot = 7812.49965075494
963  ekin = 7812.49965075494 | epot = 0 | etot = 7812.49965075494
964  ekin = 7812.49965075494 | epot = 0 | etot = 7812.49965075494
965  ekin = 7812.49965075494 | epot = 0 | etot = 7812.49965075494
966  ekin = 7812.49965075494 | epot = 0 | etot = 7812.49965075494
967  ekin = 7812.49965075494 | epot = 0 | etot = 7812.49965075494
968  ekin = 7812.49965075494 | epot = 0 | etot = 7812.49965075494
969  ekin = 7812.49965075494 | epot = 0 | etot = 7812.49965075494
970  ekin = 7812.49965075494 | epot = 0 | etot = 7812.49965075494
971  ekin = 7812.49965075494 | epot = 0 | etot = 7812.49965075494
972  ekin = 7812.49965075494 | epot = 0 | etot = 7812.49965075494
973  ekin = 7812.49965075494 | epot = 0 | etot = 7812.49965075494
974  ekin = 7812.49965075494 | epot = 0 | etot = 7812.49965075494
975  ekin = 7812.49965075494 | epot = 0 | etot = 7812.49965075494
976  ekin = 7812.49965075494 | epot = 0 | etot = 7812.49965075494
977  ekin = 7812.49965075494 | epot = 0 | etot = 7812.49965075494
978  ekin = 7812.49965075494 | epot = 0 | etot = 7812.49965075494
979  ekin = 7812.49965075494 | epot = 0 | etot = 7812.49965075494
980  ekin = 7812.49965075494 | epot = 0 | etot = 7812.49965075494
981  ekin = 7812.49965075494 | epot = 0 | etot = 7812.49965075494
982  ekin = 7812.49965075494 | epot = 0 | etot = 7812.49965075494
983  ekin = 7812.49965075494 | epot = 0 | etot = 7812.49965075494
984  ekin = 7812.49965075494 | epot = 0 | etot = 7812.49965075494
985  ekin = 7812.49965075494 | epot = 0 | etot = 7812.49965075494
986  ekin = 7812.49965075494 | epot = 0 | etot = 7812.49965075494
987  ekin = 7812.49965075494 | epot = 0 | etot = 7812.49965075494
988  ekin = 7812.49965075494 | epot = 0 | etot = 7812.49965075494
989  ekin = 7812.49965075494 | epot = 0 | etot = 7812.49965075494
990  ekin = 7812.49965075494 | epot = 0 | etot = 7812.49965075494
991  ekin = 7812.49965075494 | epot = 0 | etot = 7812.49965075494
992  ekin = 7812.49965075494 | epot = 0 | etot = 7812.49965075494
993  ekin = 7812.49965075494 | epot = 0 | etot = 7812.49965075494
994  ekin = 7812.49965075494 | epot = 0 | etot = 7812.49965075494
995  ekin = 7812.49965075494 | epot = 0 | etot = 7812.49965075494
996  ekin = 7812.49965075494 | epot = 0 | etot = 7812.49965075494
997  ekin = 7812.49965075494 | epot = 0 | etot = 7812.49965075494
998  ekin = 7812.49965075494 | epot = 0 | etot = 7812.49965075494
999  ekin = 7812.49965075494 | epot = 0 | etot = 7812.49965075494
1000  ekin = 7812.49965075494 | epot = 0 | etot = 7812.49965075494
1001  ekin = 7812.49965075494 | epot = 0 | etot = 7812.49965075494
1002  ekin = 7812.49965075494 | epot = 0 | etot = 7812.49965075494
1003  ekin = 7812.49965075494 | epot = 0 | etot = 7812.49965075494
1004  ekin = 7812.49965075494 | epot = 0 | etot = 7812.49965075494
1005  ekin = 7812.49965075494 | epot = 0 | etot = 7812.49965075494
1006  ekin = 7812.49965075494 | epot = 0 | etot = 7812.49965075494
1007  ekin = 7812.49965075494 | epot = 0 | etot = 7812.49965075494
1008  ekin = 7812.49965075494 | epot = 0 | etot = 7812.49965075494
1009  ekin = 7812.49965075494 | epot = 0 | etot = 7812.49965075494
1010  ekin = 7812.49965075494 | epot = 0 | etot = 7812.49965075494
1011  ekin = 7812.49965075494 | epot = 0 | etot = 7812.49965075494
1012  ekin = 7812.49965075494 | epot = 0 | etot = 7812.49965075494
1013  ekin = 7812.49965075494 | epot = 0 | etot = 7812.49965075494
1014  ekin = 7812.49965075494 | epot = 0 | etot = 7812.49965075494
1015  ekin = 7812.49965075494 | epot = 0 | etot = 7812.49965075494
1016  ekin = 7812.49965075494 | epot = 0 | etot = 7812.49965075494
1017  ekin = 7812.49965075494 | epot = 0 | etot = 7812.49965075494
1018  ekin = 7812.49965075494 | epot = 0 | etot = 7812.49965075494
1019  ekin = 7812.49965075494 | epot = 0 | etot = 7812.49965075494
1020  ekin = 7812.49965075494 | epot = 0 | etot = 7812.49965075494
1021  ekin = 7812.49965075494 | epot = 0 | etot = 7812.49965075494
1022  ekin = 7812.49965075494 | epot = 0 | etot = 7812.49965075494
1023  ekin = 7812.49965075494 | epot = 0 | etot = 7812.49965075494
1024  ekin = 7812.49965075494 | epot = 0 | etot = 7812.49965075494
1025  ekin = 7812.49965075494 | epot = 0 | etot = 7812.49965075494
1026  ekin = 7812.49965075494 | epot = 0 | etot = 7812.49965075494
1027  ekin = 7812.49965075494 | epot = 0 | etot = 7812.49965075494
1028  ekin = 7812.49965075494 | epot = 0 | etot = 7812.49965075494
1029  ekin = 7812.49965075494 | epot = 0 | etot = 7812.49965075494
1030  ekin = 7812.49965075494 | epot = 0 | etot = 7812.49965075494
1031  ekin = 7812.49965075494 | epot = 0 | etot = 7812.49965075494
1032  ekin = 7812.49965075494 | epot = 0 | etot = 7812.49965075494
1033  ekin = 7812.49965075494 | epot = 0 | etot = 7812.49965075494
1034  ekin = 7812.49965075494 | epot = 0 | etot = 7812.49965075494
1035  ekin = 7812.49965075494 | epot = 0 | etot = 7812.49965075494
1036  ekin = 7812.49965075494 | epot = 0 | etot = 7812.49965075494
1037  ekin = 7812.49965075494 | epot = 0 | etot = 7812.49965075494
1038  ekin = 7812.49965075494 | epot = 0 | etot = 7812.49965075494
1039  ekin = 7812.49965075494 | epot = 0 | etot = 7812.49965075494
1040  ekin = 7812.49965075494 | epot = 0 | etot = 7812.49965075494
1041  ekin = 7812.49965075494 | epot = 0 | etot = 7812.49965075494
1042  ekin = 7812.49965075494 | epot = 0 | etot = 7812.49965075494
1043  ekin = 7812.49965075494 | epot = 0 | etot = 7812.49965075494
1044  ekin = 7812.49965075494 | epot = 0 | etot = 7812.49965075494
1045  ekin = 7812.49965075494 | epot = 0 | etot = 7812.49965075494
1046  ekin = 7812.49965075494 | epot = 0 | etot = 7812.49965075494
1047  ekin = 7812.49965075494 | epot = 0 | etot = 7812.49965075494
1048  ekin = 7812.49965075494 | epot = 0 | etot = 7812.49965075494
1049  ekin = 7812.49965075494 | epot = 0 | etot = 7812.49965075494
1050  ekin = 7812.49965075494 | epot = 0 | etot = 7812.49965075494
1051  ekin = 7812.49965075494 | epot = 0 | etot = 7812.49965075494
1052  ekin = 7812.49965075494 | epot = 0 | etot = 7812.49965075494
1053  ekin = 7812.49965075494 | epot = 0 | etot = 7812.49965075494
1054  ekin = 7812.49965075494 | epot = 0 | etot = 7812.49965075494
1055  ekin = 7812.49965075494 | epot = 0 | etot = 7812.49965075494
1056  ekin = 7812.49965075494 | epot = 0 | etot = 7812.49965075494
1057  ekin = 7812.49965075494 | epot = 0 | etot = 7812.49965075494
1058  ekin = 7812.49965075494 | epot = 0 | etot = 7812.49965075494
1059  ekin = 7812.49965075494 | epot = 0 | etot = 7812.49965075494
1060  ekin = 7812.49965075494 | epot = 0 | etot = 7812.49965075494
1061  ekin = 7812.49965075494 | epot = 0 | etot = 7812.49965075494
1062  ekin = 7812.49965075494 | epot = 0 | etot = 7812.49965075494
1063  ekin = 7812.49965075494 | epot = 0 | etot = 7812.49965075494
1064  ekin = 7812.49965075494 | epot = 0 | etot = 7812.49965075494
1065  ekin = 7812.49965075494 | epot = 0 | etot = 7812.49965075494
1066  ekin = 7812.49965075494 | epot = 0 | etot = 7812.49965075494
1067  ekin = 7812.49965075494 | epot = 0 | etot = 7812.49965075494
1068  ekin = 7812.49965075494 | epot = 0 | etot = 7812.49965075494
1069  ekin = 7812.49965075494 | epot = 0 | etot = 7812.49965075494
1070  ekin = 7812.49965075494 | epot = 0 | etot = 7812.49965075494
1071  ekin = 7812.49965075494 | epot = 0 | etot = 7812.49965075494
1072  ekin = 7812.49965075494 | epot = 0 | etot = 7812.49965075494
1073  ekin = 7812.49965075494 | epot = 0 | etot = 7812.49965075494
1074  ekin = 7812.49965075494 | epot = 0 | etot = 7812.49965075494
1075  ekin = 7812.49965075494 | epot = 0 | etot = 7812.49965075494
1076  ekin = 7812.49965075494 | epot = 0 | etot = 7812.49965075494
1077  ekin = 7812.49965075494 | epot = 0 | etot = 7812.49965075494
1078  ekin = 7812.49965075494 | epot = 0 | etot = 7812.49965075494
1079  ekin = 7812.49965075494 | epot = 0 | etot = 7812.49965075494
1080  ekin = 7812.49965075494 | epot = 0 | etot = 7812.49965075494
1081  ekin = 7812.49965075494 | epot = 0 | etot = 7812.49965075494
1082  ekin = 7812.49965075494 | epot = 0 | etot = 7812.49965075494
1083  ekin = 7812.49965075494 | epot = 0 | etot = 7812.49965075494
1084  ekin = 7812.49965075494 | epot = 0 | etot = 7812.49965075494
1085  ekin = 7812.49965075494 | epot = 0 | etot = 7812.49965075494
1086  ekin = 7812.49965075494 | epot = 0 | etot = 7812.49965075494
1087  ekin = 7812.49965075494 | epot = 0 | etot = 7812.49965075494
1088  ekin = 7812.49965075494 | epot = 0 | etot = 7812.49965075494
1089  ekin = 7812.49965075494 | epot = 0 | etot = 7812.49965075494
1090  ekin = 7812.49965075494 | epot = 0 | etot = 7812.49965075494
1091  ekin = 7812.49965075494 | epot = 0 | etot = 7812.49965075494
1092  ekin = 7812.49965075494 | epot = 0 | etot = 7812.49965075494
1093  ekin = 7812.49965075494 | epot = 0 | etot = 7812.49965075494
1094  ekin = 7812.49965075494 | epot = 0 | etot = 7812.49965075494
1095  ekin = 7812.49965075494 | epot = 0 | etot = 7812.49965075494
1096  ekin = 7812.49965075494 | epot = 0 | etot = 7812.49965075494
1097  ekin = 7812.49965075494 | epot = 0 | etot = 7812.49965075494
1098  ekin = 7812.49965075494 | epot = 0 | etot = 7812.49965075494
1099  ekin = 7812.49965075494 | epot = 0 | etot = 7812.49965075494
1100  ekin = 7812.49965075494 | epot = 0 | etot = 7812.49965075494
1101  ekin = 7812.49965075494 | epot = 0 | etot = 7812.49965075494
1102  ekin = 7812.49965075494 | epot = 0 | etot = 7812.49965075494
1103  ekin = 7812.49965075494 | epot = 0 | etot = 7812.49965075494
1104  ekin = 7812.49965075494 | epot = 0 | etot = 7812.49965075494
1105  ekin = 7812.49965075494 | epot = 0 | etot = 7812.49965075494
1106  ekin = 7812.49965075494 | epot = 0 | etot = 7812.49965075494
1107  ekin = 7812.49965075494 | epot = 0 | etot = 7812.49965075494
1108  ekin = 7812.49965075494 | epot = 0 | etot = 7812.49965075494
1109  ekin = 7812.49965075494 | epot = 0 | etot = 7812.49965075494
1110  ekin = 7812.49965075494 | epot = 0 | etot = 7812.49965075494
1111  ekin = 7812.49965075494 | epot = 0 | etot = 7812.49965075494
1112  ekin = 7812.49965075494 | epot = 0 | etot = 7812.49965075494
1113  ekin = 7812.49965075494 | epot = 0 | etot = 7812.49965075494
1114  ekin = 7812.49965075494 | epot = 0 | etot = 7812.49965075494
1115  ekin = 7812.49965075494 | epot = 0 | etot = 7812.49965075494
1116  ekin = 7812.49965075494 | epot = 0 | etot = 7812.49965075494
1117  ekin = 7812.49965075494 | epot = 0 | etot = 7812.49965075494
1118  ekin = 7812.49965075494 | epot = 0 | etot = 7812.49965075494
1119  ekin = 7812.49965075494 | epot = 0 | etot = 7812.49965075494
1120  ekin = 7812.49965075494 | epot = 0 | etot = 7812.49965075494
1121  ekin = 7812.49965075494 | epot = 0 | etot = 7812.49965075494
1122  ekin = 7812.49965075494 | epot = 0 | etot = 7812.49965075494
1123  ekin = 7812.49965075494 | epot = 0 | etot = 7812.49965075494
1124  ekin = 7812.49965075494 | epot = 0 | etot = 7812.49965075494
1125  ekin = 7812.49965075494 | epot = 0 | etot = 7812.49965075494
1126  ekin = 7812.49965075494 | epot = 0 | etot = 7812.49965075494
1127  ekin = 7812.49965075494 | epot = 0 | etot = 7812.49965075494
1128  ekin = 7812.49965075494 | epot = 0 | etot = 7812.49965075494
1129  ekin = 7812.49965075494 | epot = 0 | etot = 7812.49965075494
1130  ekin = 7812.49965075494 | epot = 0 | etot = 7812.49965075494
1131  ekin = 7812.49965075494 | epot = 0 | etot = 7812.49965075494
1132  ekin = 7812.49965075494 | epot = 0 | etot = 7812.49965075494
1133  ekin = 7812.49965075494 | epot = 0 | etot = 7812.49965075494
1134  ekin = 7812.49965075494 | epot = 0 | etot = 7812.49965075494
1135  ekin = 7812.49965075494 | epot = 0 | etot = 7812.49965075494
1136  ekin = 7812.49965075494 | epot = 0 | etot = 7812.49965075494
1137  ekin = 7812.49965075494 | epot = 0 | etot = 7812.49965075494
1138  ekin = 7812.49965075494 | epot = 0 | etot = 7812.49965075494
1139  ekin = 7812.49965075494 | epot = 0 | etot = 7812.49965075494
1140  ekin = 7812.49965075494 | epot = 0 | etot = 7812.49965075494
1141  ekin = 7812.49965075494 | epot = 0 | etot = 7812.49965075494
1142  ekin = 7812.49965075494 | epot = 0 | etot = 7812.49965075494
[...]
9723  ekin = 7812.49965075494 | epot = 0 | etot = 7812.49965075494
9724  ekin = 7812.49965075494 | epot = 0 | etot = 7812.49965075494
9725  ekin = 7812.49965075494 | epot = 0 | etot = 7812.49965075494
9726  ekin = 7812.49965075494 | epot = 0 | etot = 7812.49965075494
9727  ekin = 7812.49965075494 | epot = 0 | etot = 7812.49965075494
9728  ekin = 7812.49965075494 | epot = 0 | etot = 7812.49965075494
9729  ekin = 7812.49965075494 | epot = 0 | etot = 7812.49965075494
9730  ekin = 7812.49965075494 | epot = 0 | etot = 7812.49965075494
9731  ekin = 7812.49965075494 | epot = 0 | etot = 7812.49965075494
9732  ekin = 7812.49965075494 | epot = 0 | etot = 7812.49965075494
9733  ekin = 7812.49965075494 | epot = 0 | etot = 7812.49965075494
9734  ekin = 7812.49965075494 | epot = 0 | etot = 7812.49965075494
9735  ekin = 7812.49965075494 | epot = 0 | etot = 7812.49965075494
9736  ekin = 7812.49965075494 | epot = 0 | etot = 7812.49965075494
9737  ekin = 7812.49965075494 | epot = 0 | etot = 7812.49965075494
9738  ekin = 7812.49965075494 | epot = 0 | etot = 7812.49965075494
9739  ekin = 7812.49965075494 | epot = 0 | etot = 7812.49965075494
9740  ekin = 7812.49965075494 | epot = 0 | etot = 7812.49965075494
9741  ekin = 7812.49965075494 | epot = 0 | etot = 7812.49965075494
9742  ekin = 7812.49965075494 | epot = 0 | etot = 7812.49965075494
9743  ekin = 7812.49965075494 | epot = 0 | etot = 7812.49965075494
9744  ekin = 7812.49965075494 | epot = 0 | etot = 7812.49965075494
9745  ekin = 7812.49965075494 | epot = 0 | etot = 7812.49965075494
9746  ekin = 7812.49965075494 | epot = 0 | etot = 7812.49965075494
9747  ekin = 7812.49965075494 | epot = 0 | etot = 7812.49965075494
9748  ekin = 7812.49965075494 | epot = 0 | etot = 7812.49965075494
9749  ekin = 7812.49965075494 | epot = 0 | etot = 7812.49965075494
9750  ekin = 7812.49965075494 | epot = 0 | etot = 7812.49965075494
9751  ekin = 7812.49965075494 | epot = 0 | etot = 7812.49965075494
9752  ekin = 7812.49965075494 | epot = 0 | etot = 7812.49965075494
9753  ekin = 7812.49965075494 | epot = 0 | etot = 7812.49965075494
9754  ekin = 7812.49965075494 | epot = 0 | etot = 7812.49965075494
9755  ekin = 7812.49965075494 | epot = 0 | etot = 7812.49965075494
9756  ekin = 7812.49965075494 | epot = 0 | etot = 7812.49965075494
9757  ekin = 7812.49965075494 | epot = 0 | etot = 7812.49965075494
9758  ekin = 7812.49965075494 | epot = 0 | etot = 7812.49965075494
9759  ekin = 7812.49965075494 | epot = 0 | etot = 7812.49965075494
9760  ekin = 7812.49965075494 | epot = 0 | etot = 7812.49965075494
9761  ekin = 7812.49965075494 | epot = 0 | etot = 7812.49965075494
9762  ekin = 7812.49965075494 | epot = 0 | etot = 7812.49965075494
9763  ekin = 7812.49965075494 | epot = 0 | etot = 7812.49965075494
9764  ekin = 7812.49965075494 | epot = 0 | etot = 7812.49965075494
9765  ekin = 7812.49965075494 | epot = 0 | etot = 7812.49965075494
9766  ekin = 7812.49965075494 | epot = 0 | etot = 7812.49965075494
9767  ekin = 7812.49965075494 | epot = 0 | etot = 7812.49965075494
9768  ekin = 7812.49965075494 | epot = 0 | etot = 7812.49965075494
9769  ekin = 7812.49965075494 | epot = 0 | etot = 7812.49965075494
9770  ekin = 7812.49965075494 | epot = 0 | etot = 7812.49965075494
9771  ekin = 7812.49965075494 | epot = 0 | etot = 7812.49965075494
9772  ekin = 7812.49965075494 | epot = 0 | etot = 7812.49965075494
9773  ekin = 7812.49965075494 | epot = 0 | etot = 7812.49965075494
9774  ekin = 7812.49965075494 | epot = 0 | etot = 7812.49965075494
9775  ekin = 7812.49965075494 | epot = 0 | etot = 7812.49965075494
9776  ekin = 7812.49965075494 | epot = 0 | etot = 7812.49965075494
9777  ekin = 7812.49965075494 | epot = 0 | etot = 7812.49965075494
9778  ekin = 7812.49965075494 | epot = 0 | etot = 7812.49965075494
9779  ekin = 7812.49965075494 | epot = 0 | etot = 7812.49965075494
9780  ekin = 7812.49965075494 | epot = 0 | etot = 7812.49965075494
9781  ekin = 7812.49965075494 | epot = 0 | etot = 7812.49965075494
9782  ekin = 7812.49965075494 | epot = 0 | etot = 7812.49965075494
9783  ekin = 7812.49965075494 | epot = 0 | etot = 7812.49965075494
9784  ekin = 7812.49965075494 | epot = 0 | etot = 7812.49965075494
9785  ekin = 7812.49965075494 | epot = 0 | etot = 7812.49965075494
9786  ekin = 7812.49965075494 | epot = 0 | etot = 7812.49965075494
9787  ekin = 7812.49965075494 | epot = 0 | etot = 7812.49965075494
9788  ekin = 7812.49965075494 | epot = 0 | etot = 7812.49965075494
9789  ekin = 7812.49965075494 | epot = 0 | etot = 7812.49965075494
9790  ekin = 7812.49965075494 | epot = 0 | etot = 7812.49965075494
9791  ekin = 7812.49965075494 | epot = 0 | etot = 7812.49965075494
9792  ekin = 7812.49965075494 | epot = 0 | etot = 7812.49965075494
9793  ekin = 7812.49965075494 | epot = 0 | etot = 7812.49965075494
9794  ekin = 7812.49965075494 | epot = 0 | etot = 7812.49965075494
9795  ekin = 7812.49965075494 | epot = 0 | etot = 7812.49965075494
9796  ekin = 7812.49965075494 | epot = 0 | etot = 7812.49965075494
9797  ekin = 7812.49965075494 | epot = 0 | etot = 7812.49965075494
9798  ekin = 7812.49965075494 | epot = 0 | etot = 7812.49965075494
9799  ekin = 7812.49965075494 | epot = 0 | etot = 7812.49965075494
9800  ekin = 7812.49965075494 | epot = 0 | etot = 7812.49965075494
9801  ekin = 7812.49965075494 | epot = 0 | etot = 7812.49965075494
9802  ekin = 7812.49965075494 | epot = 0 | etot = 7812.49965075494
9803  ekin = 7812.49965075494 | epot = 0 | etot = 7812.49965075494
9804  ekin = 7812.49965075494 | epot = 0 | etot = 7812.49965075494
9805  ekin = 7812.49965075494 | epot = 0 | etot = 7812.49965075494
9806  ekin = 7812.49965075494 | epot = 0 | etot = 7812.49965075494
9807  ekin = 7812.49965075494 | epot = 0 | etot = 7812.49965075494
9808  ekin = 7812.49965075494 | epot = 0 | etot = 7812.49965075494
9809  ekin = 7812.49965075494 | epot = 0 | etot = 7812.49965075494
9810  ekin = 7812.49965075494 | epot = 0 | etot = 7812.49965075494
9811  ekin = 7812.49965075494 | epot = 0 | etot = 7812.49965075494
9812  ekin = 7812.49965075494 | epot = 0 | etot = 7812.49965075494
9813  ekin = 7812.49965075494 | epot = 0 | etot = 7812.49965075494
9814  ekin = 7812.49965075494 | epot = 0 | etot = 7812.49965075494
9815  ekin = 7812.49965075494 | epot = 0 | etot = 7812.49965075494
9816  ekin = 7812.49965075494 | epot = 0 | etot = 7812.49965075494
9817  ekin = 7812.49965075494 | epot = 0 | etot = 7812.49965075494
9818  ekin = 7812.49965075494 | epot = 0 | etot = 7812.49965075494
9819  ekin = 7812.49965075494 | epot = 0 | etot = 7812.49965075494
9820  ekin = 7812.49965075494 | epot = 0 | etot = 7812.49965075494
9821  ekin = 7812.49965075494 | epot = 0 | etot = 7812.49965075494
9822  ekin = 7812.49965075494 | epot = 0 | etot = 7812.49965075494
9823  ekin = 7812.49965075494 | epot = 0 | etot = 7812.49965075494
9824  ekin = 7812.49965075494 | epot = 0 | etot = 7812.49965075494
9825  ekin = 7812.49965075494 | epot = 0 | etot = 7812.49965075494
9826  ekin = 7812.49965075494 | epot = 0 | etot = 7812.49965075494
9827  ekin = 7812.49965075494 | epot = 0 | etot = 7812.49965075494
9828  ekin = 7812.49965075494 | epot = 0 | etot = 7812.49965075494
9829  ekin = 7812.49965075494 | epot = 0 | etot = 7812.49965075494
9830  ekin = 7812.49965075494 | epot = 0 | etot = 7812.49965075494
9831  ekin = 7812.49965075494 | epot = 0 | etot = 7812.49965075494
9832  ekin = 7812.49965075494 | epot = 0 | etot = 7812.49965075494
9833  ekin = 7812.49965075494 | epot = 0 | etot = 7812.49965075494
9834  ekin = 7812.49965075494 | epot = 0 | etot = 7812.49965075494
9835  ekin = 7812.49965075494 | epot = 0 | etot = 7812.49965075494
9836  ekin = 7812.49965075494 | epot = 0 | etot = 7812.49965075494
9837  ekin = 7812.49965075494 | epot = 0 | etot = 7812.49965075494
9838  ekin = 7812.49965075494 | epot = 0 | etot = 7812.49965075494
9839  ekin = 7812.49965075494 | epot = 0 | etot = 7812.49965075494
9840  ekin = 7812.49965075494 | epot = 0 | etot = 7812.49965075494
9841  ekin = 7812.49965075494 | epot = 0 | etot = 7812.49965075494
9842  ekin = 7812.49965075494 | epot = 0 | etot = 7812.49965075494
9843  ekin = 7812.49965075494 | epot = 0 | etot = 7812.49965075494
9844  ekin = 7812.49965075494 | epot = 0 | etot = 7812.49965075494
9845  ekin = 7812.49965075494 | epot = 0 | etot = 7812.49965075494
9846  ekin = 7812.49965075494 | epot = 0 | etot = 7812.49965075494
9847  ekin = 7812.49965075494 | epot = 0 | etot = 7812.49965075494
9848  ekin = 7812.49965075494 | epot = 0 | etot = 7812.49965075494
9849  ekin = 7812.49965075494 | epot = 0 | etot = 7812.49965075494
9850  ekin = 7812.49965075494 | epot = 0 | etot = 7812.49965075494
9851  ekin = 7812.49965075494 | epot = 0 | etot = 7812.49965075494
9852  ekin = 7812.49965075494 | epot = 0 | etot = 7812.49965075494
9853  ekin = 7812.49965075494 | epot = 0 | etot = 7812.49965075494
9854  ekin = 7812.49965075494 | epot = 0 | etot = 7812.49965075494
9855  ekin = 7812.49965075494 | epot = 0 | etot = 7812.49965075494
9856  ekin = 7812.49965075494 | epot = 0 | etot = 7812.49965075494
9857  ekin = 7812.49965075494 | epot = 0 | etot = 7812.49965075494
9858  ekin = 7812.49965075494 | epot = 0 | etot = 7812.49965075494
9859  ekin = 7812.49965075494 | epot = 0 | etot = 7812.49965075494
9860  ekin = 7812.49965075494 | epot = 0 | etot = 7812.49965075494
9861  ekin = 7812.49965075494 | epot = 0 | etot = 7812.49965075494
9862  ekin = 7812.49965075494 | epot = 0 | etot = 7812.49965075494
9863  ekin = 7812.49965075494 | epot = 0 | etot = 7812.49965075494
9864  ekin = 7812.49965075494 | epot = 0 | etot = 7812.49965075494
9865  ekin = 7812.49965075494 | epot = 0 | etot = 7812.49965075494
9866  ekin = 7812.49965075494 | epot = 0 | etot = 7812.49965075494
9867  ekin = 7812.49965075494 | epot = 0 | etot = 7812.49965075494
9868  ekin = 7812.49965075494 | epot = 0 | etot = 7812.49965075494
9869  ekin = 7812.49965075494 | epot = 0 | etot = 7812.49965075494
9870  ekin = 7812.49965075494 | epot = 0 | etot = 7812.49965075494
9871  ekin = 7812.49965075494 | epot = 0 | etot = 7812.49965075494
9872  ekin = 7812.49965075494 | epot = 0 | etot = 7812.49965075494
9873  ekin = 7812.49965075494 | epot = 0 | etot = 7812.49965075494
9874  ekin = 7812.49965075494 | epot = 0 | etot = 7812.49965075494
9875  ekin = 7812.49965075494 | epot = 0 | etot = 7812.49965075494
9876  ekin = 7812.49965075494 | epot = 0 | etot = 7812.49965075494
9877  ekin = 7812.49965075494 | epot = 0 | etot = 7812.49965075494
9878  ekin = 7812.49965075494 | epot = 0 | etot = 7812.49965075494
9879  ekin = 7812.49965075494 | epot = 0 | etot = 7812.49965075494
9880  ekin = 7812.49965075494 | epot = 0 | etot = 7812.49965075494
9881  ekin = 7812.49965075494 | epot = 0 | etot = 7812.49965075494
9882  ekin = 7812.49965075494 | epot = 0 | etot = 7812.49965075494
9883  ekin = 7812.49965075494 | epot = 0 | etot = 7812.49965075494
9884  ekin = 7812.49965075494 | epot = 0 | etot = 7812.49965075494
9885  ekin = 7812.49965075494 | epot = 0 | etot = 7812.49965075494
9886  ekin = 7812.49965075494 | epot = 0 | etot = 7812.49965075494
9887  ekin = 7812.49965075494 | epot = 0 | etot = 7812.49965075494
9888  ekin = 7812.49965075494 | epot = 0 | etot = 7812.49965075494
9889  ekin = 7812.49965075494 | epot = 0 | etot = 7812.49965075494
9890  ekin = 7812.49965075494 | epot = 0 | etot = 7812.49965075494
9891  ekin = 7812.49965075494 | epot = 0 | etot = 7812.49965075494
9892  ekin = 7812.49965075494 | epot = 0 | etot = 7812.49965075494
9893  ekin = 7812.49965075494 | epot = 0 | etot = 7812.49965075494
9894  ekin = 7812.49965075494 | epot = 0 | etot = 7812.49965075494
9895  ekin = 7812.49965075494 | epot = 0 | etot = 7812.49965075494
9896  ekin = 7812.49965075494 | epot = 0 | etot = 7812.49965075494
9897  ekin = 7812.49965075494 | epot = 0 | etot = 7812.49965075494
9898  ekin = 7812.49965075494 | epot = 0 | etot = 7812.49965075494
9899  ekin = 7812.49965075494 | epot = 0 | etot = 7812.49965075494
9900  ekin = 7812.49965075494 | epot = 0 | etot = 7812.49965075494
9901  ekin = 7812.49965075494 | epot = 0 | etot = 7812.49965075494
9902  ekin = 7812.49965075494 | epot = 0 | etot = 7812.49965075494
9903  ekin = 7812.49965075494 | epot = 0 | etot = 7812.49965075494
9904  ekin = 7812.49965075494 | epot = 0 | etot = 7812.49965075494
9905  ekin = 7812.49965075494 | epot = 0 | etot = 7812.49965075494
9906  ekin = 7812.49965075494 | epot = 0 | etot = 7812.49965075494
9907  ekin = 7812.49965075494 | epot = 0 | etot = 7812.49965075494
9908  ekin = 7812.49965075494 | epot = 0 | etot = 7812.49965075494
9909  ekin = 7812.49965075494 | epot = 0 | etot = 7812.49965075494
9910  ekin = 7812.49965075494 | epot = 0 | etot = 7812.49965075494
9911  ekin = 7812.49965075494 | epot = 0 | etot = 7812.49965075494
9912  ekin = 7812.49965075494 | epot = 0 | etot = 7812.49965075494
9913  ekin = 7812.49965075494 | epot = 0 | etot = 7812.49965075494
9914  ekin = 7812.49965075494 | epot = 0 | etot = 7812.49965075494
9915  ekin = 7812.49965075494 | epot = 0 | etot = 7812.49965075494
9916  ekin = 7812.49965075494 | epot = 0 | etot = 7812.49965075494
9917  ekin = 7812.49965075494 | epot = 0 | etot = 7812.49965075494
9918  ekin = 7812.49965075494 | epot = 0 | etot = 7812.49965075494
9919  ekin = 7812.49965075494 | epot = 0 | etot = 7812.49965075494
9920  ekin = 7812.49965075494 | epot = 0 | etot = 7812.49965075494
9921  ekin = 7812.49965075494 | epot = 0 | etot = 7812.49965075494
9922  ekin = 7812.49965075494 | epot = 0 | etot = 7812.49965075494
9923  ekin = 7812.49965075494 | epot = 0 | etot = 7812.49965075494
9924  ekin = 7812.49965075494 | epot = 0 | etot = 7812.49965075494
9925  ekin = 7812.49965075494 | epot = 0 | etot = 7812.49965075494
9926  ekin = 7812.49965075494 | epot = 0 | etot = 7812.49965075494
9927  ekin = 7812.49965075494 | epot = 0 | etot = 7812.49965075494
9928  ekin = 7812.49965075494 | epot = 0 | etot = 7812.49965075494
9929  ekin = 7812.49965075494 | epot = 0 | etot = 7812.49965075494
9930  ekin = 7812.49965075494 | epot = 0 | etot = 7812.49965075494
9931  ekin = 7812.49965075494 | epot = 0 | etot = 7812.49965075494
9932  ekin = 7812.49965075494 | epot = 0 | etot = 7812.49965075494
9933  ekin = 7812.49965075494 | epot = 0 | etot = 7812.49965075494
9934  ekin = 7812.49965075494 | epot = 0 | etot = 7812.49965075494
9935  ekin = 7812.49965075494 | epot = 0 | etot = 7812.49965075494
9936  ekin = 7812.49965075494 | epot = 0 | etot = 7812.49965075494
9937  ekin = 7812.49965075494 | epot = 0 | etot = 7812.49965075494
9938  ekin = 7812.49965075494 | epot = 0 | etot = 7812.49965075494
9939  ekin = 7812.49965075494 | epot = 0 | etot = 7812.49965075494
9940  ekin = 7812.49965075494 | epot = 0 | etot = 7812.49965075494
9941  ekin = 7812.49965075494 | epot = 0 | etot = 7812.49965075494
9942  ekin = 7812.49965075494 | epot = 0 | etot = 7812.49965075494
9943  ekin = 7812.49965075494 | epot = 0 | etot = 7812.49965075494
9944  ekin = 7812.49965075494 | epot = 0 | etot = 7812.49965075494
9945  ekin = 7812.49965075494 | epot = 0 | etot = 7812.49965075494
9946  ekin = 7812.49965075494 | epot = 0 | etot = 7812.49965075494
9947  ekin = 7812.49965075494 | epot = 0 | etot = 7812.49965075494
9948  ekin = 7812.49965075494 | epot = 0 | etot = 7812.49965075494
9949  ekin = 7812.49965075494 | epot = 0 | etot = 7812.49965075494
9950  ekin = 7812.49965075494 | epot = 0 | etot = 7812.49965075494
9951  ekin = 7812.49965075494 | epot = 0 | etot = 7812.49965075494
9952  ekin = 7812.49965075494 | epot = 0 | etot = 7812.49965075494
9953  ekin = 7812.49965075494 | epot = 0 | etot = 7812.49965075494
9954  ekin = 7812.49965075494 | epot = 0 | etot = 7812.49965075494
9955  ekin = 7812.49965075494 | epot = 0 | etot = 7812.49965075494
9956  ekin = 7812.49965075494 | epot = 0 | etot = 7812.49965075494
9957  ekin = 7812.49965075494 | epot = 0 | etot = 7812.49965075494
9958  ekin = 7812.49965075494 | epot = 0 | etot = 7812.49965075494
9959  ekin = 7812.49965075494 | epot = 0 | etot = 7812.49965075494
9960  ekin = 7812.49965075494 | epot = 0 | etot = 7812.49965075494
9961  ekin = 7812.49965075494 | epot = 0 | etot = 7812.49965075494
9962  ekin = 7812.49965075494 | epot = 0 | etot = 7812.49965075494
9963  ekin = 7812.49965075494 | epot = 0 | etot = 7812.49965075494
9964  ekin = 7812.49965075494 | epot = 0 | etot = 7812.49965075494
9965  ekin = 7812.49965075494 | epot = 0 | etot = 7812.49965075494
9966  ekin = 7812.49965075494 | epot = 0 | etot = 7812.49965075494
9967  ekin = 7812.49965075494 | epot = 0 | etot = 7812.49965075494
9968  ekin = 7812.49965075494 | epot = 0 | etot = 7812.49965075494
9969  ekin = 7812.49965075494 | epot = 0 | etot = 7812.49965075494
9970  ekin = 7812.49965075494 | epot = 0 | etot = 7812.49965075494
9971  ekin = 7812.49965075494 | epot = 0 | etot = 7812.49965075494
9972  ekin = 7812.49965075494 | epot = 0 | etot = 7812.49965075494
9973  ekin = 7812.49965075494 | epot = 0 | etot = 7812.49965075494
9974  ekin = 7812.49965075494 | epot = 0 | etot = 7812.49965075494
9975  ekin = 7812.49965075494 | epot = 0 | etot = 7812.49965075494
9976  ekin = 7812.49965075494 | epot = 0 | etot = 7812.49965075494
9977  ekin = 7812.49965075494 | epot = 0 | etot = 7812.49965075494
9978  ekin = 7812.49965075494 | epot = 0 | etot = 7812.49965075494
9979  ekin = 7812.49965075494 | epot = 0 | etot = 7812.49965075494
9980  ekin = 7812.49965075494 | epot = 0 | etot = 7812.49965075494
9981  ekin = 7812.49965075494 | epot = 0 | etot = 7812.49965075494
9982  ekin = 7812.49965075494 | epot = 0 | etot = 7812.49965075494
9983  ekin = 7812.49965075494 | epot = 0 | etot = 7812.49965075494
9984  ekin = 7812.49965075494 | epot = 0 | etot = 7812.49965075494
9985  ekin = 7812.49965075494 | epot = 0 | etot = 7812.49965075494
9986  ekin = 7812.49965075494 | epot = 0 | etot = 7812.49965075494
9987  ekin = 7812.49965075494 | epot = 0 | etot = 7812.49965075494
9988  ekin = 7812.49965075494 | epot = 0 | etot = 7812.49965075494
9989  ekin = 7812.49965075494 | epot = 0 | etot = 7812.49965075494
9990  ekin = 7812.49965075494 | epot = 0 | etot = 7812.49965075494
9991  ekin = 7812.49965075494 | epot = 0 | etot = 7812.49965075494
9992  ekin = 7812.49965075494 | epot = 0 | etot = 7812.49965075494
9993  ekin = 7812.49965075494 | epot = 0 | etot = 7812.49965075494
9994  ekin = 7812.49965075494 | epot = 0 | etot = 7812.49965075494
9995  ekin = 7812.49965075494 | epot = 0 | etot = 7812.49965075494
9996  ekin = 7812.49965075494 | epot = 0 | etot = 7812.49965075494
9997  ekin = 7812.49965075494 | epot = 0 | etot = 7812.49965075494
9998  ekin = 7812.49965075494 | epot = 0 | etot = 7812.49965075494
9999  ekin = 7812.49965075494 | epot = 0 | etot = 7812.49965075494
10000  ekin = 7812.49965075494 | epot = 0 | etot = 7812.49965075494
     10000   2604.1666      0              0              2604.1666      5.2083331    
Loop time of 0.39787 on 2 procs for 10000 steps with 3 atoms

Performance: 2171566.256 tau/day, 25133.869 timesteps/s, 75.402 katom-step/s
82.3% CPU use with 2 MPI tasks x 1 OpenMP threads

MPI task timing breakdown:
Section |  min time  |  avg time  |  max time  |%varavg| %total
---------------------------------------------------------------
Pair    | 0.025262   | 0.026928   | 0.028594   |   1.0 |  6.77
Neigh   | 0.0093568  | 0.0095398  | 0.0097229  |   0.2 |  2.40
Comm    | 0.11104    | 0.11152    | 0.112      |   0.1 | 28.03
Output  | 0.085063   | 0.092311   | 0.099559   |   2.4 | 23.20
Modify  | 0.082368   | 0.096235   | 0.1101     |   4.5 | 24.19
Other   |            | 0.06133    |            |       | 15.42

Nlocal:            1.5 ave           2 max           1 min
Histogram: 1 0 0 0 0 0 0 0 0 1
Nghost:              0 ave           0 max           0 min
Histogram: 2 0 0 0 0 0 0 0 0 0
Neighs:              0 ave           0 max           0 min
Histogram: 2 0 0 0 0 0 0 0 0 0

Total # of neighbors = 0
Ave neighs/atom = 0
Neighbor list builds = 1250
Dangerous builds = 0

write_data data_out.* nocoeff
System init for write_data ...
Generated 0 of 0 mixed pair_coeff terms from geometric mixing rule

Total wall time: 0:00:00
