LAMMPS data file via write_data, version 7 Feb 2024, timestep = 85000, units = lj

10 atoms
1 atom types
10 ellipsoids

3 8 xlo xhi
-4 0 ylo yhi
-7 3 zlo zhi

Atoms # ellipsoid/kk

2 1 1 238.7324039657 3.1582654340021286 -3.9275898661185056 -6.5636455516495635 0 0 0
3 1 1 238.7324039657 6.343181152669828 -3.6474716323859164 -5.338126668790551 -1 0 0
4 1 1 238.7324039657 4.735462885096273 -2.0823613771530334 -3.5979014303044807 0 0 0
10 1 1 238.7324039657 7.336857685404121 -0.1396748797119002 -2.5916642353079085 0 0 1
6 1 1 238.7324039657 7.304294554398897 -3.121034830778913 -2.0165408607542683 -1 0 0
5 1 1 238.7324039657 3.5441789038542453 -2.9978167975621592 -0.21370478696624476 1 0 0
1 1 1 238.7324039657 7.975076055856848 -0.5494682617957437 -0.28432274148081815 -1 -1 -1
9 1 1 238.7324039657 6.8236170088391885 -3.189910487381779 1.5787709113974018 0 0 0
7 1 1 238.7324039657 6.6551927487305775 -1.4396764348535742 -1.841586862504282 0 0 0
8 1 1 238.7324039657 5.443037231538898 -1.9747974267447077 0.970354388351542 1 0 0

Velocities

2 -0.08320495639046202 -0.056889708240921225 -0.1345598147444346 0 0 0
3 -0.3420049163016832 -0.052046837892279194 -0.11792646278558393 0 0 0
4 0.005795196915755308 0.11600289681548735 -0.003308905063010849 0 0 0
10 0.036276688751586156 0.1839843099023596 0.5571286704100674 0 0 0
6 -0.4536106500222903 -0.08090936818390754 -0.10173574395761674 0 0 0
5 0.41490349858172376 0.23827109629575785 0.18740921480317738 0 0 0
1 -0.0955846332278025 -0.3580690778798039 -0.33997683144392454 0 0 0
9 -0.016206525408714423 -0.1389440271986213 0.011565371876626282 0 0 0
7 0.04863592300529798 0.11794141317053772 -0.1681176969945929 0 0 0
8 0.4850003740965883 0.030659303211393013 0.10952219789929334 0 0 0

Ellipsoids

2 0.5 1 0.5 0.9237852583388739 0.3829109511045357 0 0
3 1 0.5 0.5 0.9237852583388739 0 0.3829109511045357 0
4 0.5 0.5 1 0.9237852583388739 0 0 0.3829109511045357
10 0.5 0.5 1 1 0 0 0
6 0.5 0.5 1 1 0 0 0
5 0.5 1 0.5 0 0.7071067811865476 0 0.7071067811865476
1 0.5 0.5 1 1 0 0 0
9 0.5 0.5 1 1 0 0 0
7 0.5 1 0.5 0.9237852583388739 0.3829109511045357 0 0
8 0.5 1 0.5 0 0.7071067811865476 0 0.7071067811865476
