LAMMPS data file via write_data, version 7 Feb 2024, timestep = 14000, units = lj

10 atoms
1 atom types
10 ellipsoids

3 8 xlo xhi
-4 0 ylo yhi
-7 3 zlo zhi

Atoms # ellipsoid/kk

5 1 1 238.7324039657 5.676925310352697 -2.98675867365852 -2.4029045917957306 0 0 0
2 1 1 238.7324039657 3.7490206243815614 -3.523672937600128 -5.6082708669358246 0 0 0
3 1 1 238.7324039657 3.771416058404645 -3.277939083346763 -4.500848783041718 0 0 0
4 1 1 238.7324039657 4.694316986979172 -2.9059819445554056 -3.5744082043709455 0 0 0
10 1 1 238.7324039657 7.079293195242444 -1.445963480020437 -6.547277795209437 0 0 1
6 1 1 238.7324039657 5.516519320469747 -2.5494950384093342 -1.3006200288228422 0 0 0
7 1 1 238.7324039657 6.31729004641828 -2.274255796512048 -0.6427521198481242 0 0 0
8 1 1 238.7324039657 7.000533073523887 -2.1923664296711114 0.1939506394427295 0 0 0
9 1 1 238.7324039657 6.938683339254214 -2.203407894266944 1.4966567710796224 0 0 0
1 1 1 238.7324039657 3.575165705372018 -3.709960716459477 2.9881071415014375 0 0 -1

Velocities

5 0.4021785921220932 -0.04231244710777892 0.32926571045284714 0 0 0
2 -0.08320495639046202 -0.056889708240921225 -0.1345598147444346 0 0 0
3 -0.3420049163016832 -0.052046837892279194 -0.11792646278558393 0 0 0
4 0.005795196915755308 0.11600289681548735 -0.003308905063010849 0 0 0
10 0.036276688751586156 0.1839843099023596 0.5571286704100674 0 0 0
6 -0.34485059244546346 -0.04329379842960957 -0.017048708739586898 0 0 0
7 -0.02906107277866757 0.08388075415898467 -0.2151854430724768 0 0 0
8 0.45393731230372725 0.027104392468648188 0.07190290875914612 0 0 0
9 -0.016206525408714423 -0.1389440271986213 0.011565371876626282 0 0 0
1 -0.08285972676817413 -0.07748553447626898 -0.48183332709359517 0 0 0

Ellipsoids

5 0.5 1 0.5 0 0.7071067811865476 0 0.7071067811865476
2 0.5 1 0.5 0.9237852583388739 0.3829109511045357 0 0
3 1 0.5 0.5 0.9237852583388739 0 0.3829109511045357 0
4 0.5 0.5 1 0.9237852583388739 0 0 0.3829109511045357
10 0.5 1 0.5 0 0.7071067811865476 0 0.7071067811865476
6 0.5 0.5 1 1 0 0 0
7 0.5 1 0.5 0.9237852583388739 0.3829109511045357 0 0
8 1 0.5 0.5 0.9237852583388739 0 0.3829109511045357 0
9 0.5 0.5 1 0.9237852583388739 0 0 0.3829109511045357
1 0.5 0.5 1 1 0 0 0
