LAMMPS data file via write_data, version 7 Feb 2024, timestep = 76000, units = lj

10 atoms
1 atom types
10 ellipsoids

3 8 xlo xhi
-4 0 ylo yhi
-7 3 zlo zhi

Atoms # ellipsoid/kk

2 1 1 238.7324039657 3.233149894754451 -3.876389128700683 -6.442541718375991 0 0 0
3 1 1 238.7324039657 6.650985577338318 -3.600629478282362 -5.231992852287178 -1 0 0
4 1 1 238.7324039657 4.730247207870161 -2.1867639842885453 -3.5949234157495256 0 0 0
10 1 1 238.7324039657 7.304208665524472 -0.3052607586240335 -3.0930800386777286 0 0 1
6 1 1 238.7324039657 7.7125441394171546 -3.0482163994141613 -1.9249786911919702 -1 0 0
7 1 1 238.7324039657 6.611420418026505 -1.545823706707781 -1.6902809352089954 0 0 0
5 1 1 238.7324039657 3.1708697544021867 -3.211421627391616 -0.38268427802876 1 0 0
8 1 1 238.7324039657 5.006536894855155 -2.0023907996353074 0.8717844102417893 1 0 0
1 1 1 238.7324039657 3.0609982264904114 -0.22804524854243138 0.021967604558437506 0 -1 -1
9 1 1 238.7324039657 6.838202881708699 -3.064860862902434 1.5683620767092326 0 0 0

Velocities

2 -0.08320495639046202 -0.056889708240921225 -0.1345598147444346 0 0 0
3 -0.3420049163016832 -0.052046837892279194 -0.11792646278558393 0 0 0
4 0.005795196915755308 0.11600289681548735 -0.003308905063010849 0 0 0
10 0.036276688751586156 0.1839843099023596 0.5571286704100674 0 0 0
6 -0.4536106500222903 -0.08090936818390754 -0.10173574395761674 0 0 0
7 0.04863592300529798 0.11794141317053772 -0.1681176969945929 0 0 0
5 0.4111710249392114 0.20706956236279514 0.19921065230120524 0 0 0
8 0.4850003740965883 0.030659303211393013 0.10952219789929334 0 0 0
1 -0.09185215958529167 -0.3268675439468437 -0.35177826894195263 0 0 0
9 -0.016206525408714423 -0.1389440271986213 0.011565371876626282 0 0 0

Ellipsoids

2 0.5 1 0.5 0.9237852583388739 0.3829109511045357 0 0
3 1 0.5 0.5 0.9237852583388739 0 0.3829109511045357 0
4 0.5 0.5 1 0.9237852583388739 0 0 0.3829109511045357
10 0.5 1 0.5 0 0.7071067811865476 0 0.7071067811865476
6 0.5 0.5 1 1 0 0 0
7 0.5 1 0.5 0.9237852583388739 0.3829109511045357 0 0
5 0.5 1 0.5 0 0.7071067811865476 0 0.7071067811865476
8 1 0.5 0.5 0.9237852583388739 0 0.3829109511045357 0
1 0.5 1 0.5 0 0.7071067811865476 0 0.7071067811865476
9 0.5 0.5 1 0.9237852583388739 0 0 0.3829109511045357
