LAMMPS data file via write_data, version 7 Feb 2024, timestep = 51000, units = lj

10 atoms
1 atom types
10 ellipsoids

3 8 xlo xhi
-4 0 ylo yhi
-7 3 zlo zhi

Atoms # ellipsoid/kk

2 1 1 238.7324039657 3.4411622857331245 -3.7341648580956206 -6.106142181504956 0 0 0
3 1 1 238.7324039657 7.505997868084423 -3.4705123835502656 -4.937176695333363 -1 0 0
10 1 1 238.7324039657 7.213516943636558 -0.7652215333802972 -4.485901714701134 0 0 1
4 1 1 238.7324039657 4.715759215575408 -2.476771226331634 -3.5866511530968723 0 0 0
6 1 1 238.7324039657 3.846570764477502 -2.8459429789565176 -1.6706393312966976 0 0 0
7 1 1 238.7324039657 6.489830610515192 -1.8406772396361328 -1.2699866927220882 0 0 0
8 1 1 238.7324039657 3.7940359596203503 -2.079039057664751 0.5979789154924764 1 0 0
1 1 1 238.7324039657 3.2685847163274486 -3.99665719402666 1.2053238312533765 0 0 -1
9 1 1 238.7324039657 6.878719195235116 -2.7175007949042524 1.5394486470198736 0 0 0
5 1 1 238.7324039657 7.164986101190106 -3.143314727950954 -1.184621463121284 0 0 0

Velocities

2 -0.08320495639046202 -0.056889708240921225 -0.1345598147444346 0 0 0
3 -0.3420049163016832 -0.052046837892279194 -0.11792646278558393 0 0 0
10 0.036276688751586156 0.1839843099023596 0.5571286704100674 0 0 0
4 0.005795196915755308 0.11600289681548735 -0.003308905063010849 0 0 0
6 -0.4536106500222903 -0.08090936818390754 -0.10173574395761674 0 0 0
7 0.04863592300529798 0.11794141317053772 -0.1681176969945929 0 0 0
8 0.4850003740965883 0.030659303211393013 0.10952219789929334 0 0 0
1 -0.08285972676817413 -0.07748553447626898 -0.48183332709359517 0 0 0
9 -0.016206525408714423 -0.1389440271986213 0.011565371876626282 0 0 0
5 0.4021785921220932 -0.04231244710777892 0.32926571045284714 0 0 0

Ellipsoids

2 0.5 1 0.5 0.9237852583388739 0.3829109511045357 0 0
3 1 0.5 0.5 0.9237852583388739 0 0.3829109511045357 0
10 0.5 1 0.5 0 0.7071067811865476 0 0.7071067811865476
4 0.5 0.5 1 0.9237852583388739 0 0 0.3829109511045357
6 0.5 0.5 1 1 0 0 0
7 0.5 1 0.5 0.9237852583388739 0.3829109511045357 0 0
8 1 0.5 0.5 0.9237852583388739 0 0.3829109511045357 0
1 0.5 0.5 1 1 0 0 0
9 0.5 0.5 1 0.9237852583388739 0 0 0.3829109511045357
5 0.5 1 0.5 0 0.7071067811865476 0 0.7071067811865476
