LAMMPS data file via write_data, version 7 Feb 2024, timestep = 52000, units = lj

10 atoms
1 atom types
10 ellipsoids

3 8 xlo xhi
-4 0 ylo yhi
-7 3 zlo zhi

Atoms # ellipsoid/kk

2 1 1 238.7324039657 3.4328417900939776 -3.739853828919823 -6.1195981629797975 0 0 0
3 1 1 238.7324039657 7.47179737645429 -3.4757170673395494 -4.948969341611516 -1 0 0
4 1 1 238.7324039657 4.716338735267198 -2.4651709366499106 -3.5869820436029785 0 0 0
10 1 1 238.7324039657 7.217144612512074 -0.7468231023900231 -4.430188847660487 0 0 1
6 1 1 238.7324039657 3.801209699475088 -2.8540339157748233 -1.6808129056925085 0 0 0
7 1 1 238.7324039657 6.494694202815644 -1.8288830983189988 -1.2867984624215645 0 0 0
5 1 1 238.7324039657 7.205203960401928 -3.14754597266156 -1.1516948920760286 0 0 0
8 1 1 238.7324039657 3.842535997030399 -2.0759731273435733 0.6089311352824489 1 0 0
1 1 1 238.7324039657 3.2602987436505684 -0.004405747474377434 1.1571404985440925 0 -1 -1
9 1 1 238.7324039657 6.87709854269406 -2.7313951976241797 1.540605184207448 0 0 0

Velocities

2 -0.08320495639046202 -0.056889708240921225 -0.1345598147444346 0 0 0
3 -0.3420049163016832 -0.052046837892279194 -0.11792646278558393 0 0 0
4 0.005795196915755308 0.11600289681548735 -0.003308905063010849 0 0 0
10 0.036276688751586156 0.1839843099023596 0.5571286704100674 0 0 0
6 -0.4536106500222903 -0.08090936818390754 -0.10173574395761674 0 0 0
7 0.04863592300529798 0.11794141317053772 -0.1681176969945929 0 0 0
5 0.4021785921220932 -0.04231244710777892 0.32926571045284714 0 0 0
8 0.4850003740965883 0.030659303211393013 0.10952219789929334 0 0 0
1 -0.08285972676817413 -0.07748553447626898 -0.48183332709359517 0 0 0
9 -0.016206525408714423 -0.1389440271986213 0.011565371876626282 0 0 0

Ellipsoids

2 0.5 1 0.5 0.9237852583388739 0.3829109511045357 0 0
3 1 0.5 0.5 0.9237852583388739 0 0.3829109511045357 0
4 0.5 0.5 1 0.9237852583388739 0 0 0.3829109511045357
10 0.5 1 0.5 0 0.7071067811865476 0 0.7071067811865476
6 0.5 0.5 1 1 0 0 0
7 0.5 1 0.5 0.9237852583388739 0.3829109511045357 0 0
5 0.5 1 0.5 0 0.7071067811865476 0 0.7071067811865476
8 1 0.5 0.5 0.9237852583388739 0 0.3829109511045357 0
1 0.5 0.5 1 1 0 0 0
9 0.5 0.5 1 0.9237852583388739 0 0 0.3829109511045357
