LAMMPS data file via write_data, version 7 Feb 2024, timestep = 78000, units = lj

10 atoms
1 atom types
10 ellipsoids

3 8 xlo xhi
-4 0 ylo yhi
-7 3 zlo zhi

Atoms # ellipsoid/kk

2 1 1 238.7324039657 3.216508903476157 -3.887767070349088 -6.469453681325674 0 0 0
3 1 1 238.7324039657 6.582584594078654 -3.6110388458609295 -5.255578144843483 -1 0 0
4 1 1 238.7324039657 4.731406247253742 -2.1635634049250982 -3.595585196761738 0 0 0
10 1 1 238.7324039657 7.311464003275505 -0.26846389664359643 -2.9816543045955464 0 0 1
5 1 1 238.7324039657 3.2537464548481836 -3.16460656497063 -0.34489123732838484 1 0 0
1 1 1 238.7324039657 3.04198529911521 -0.2988199072799393 -0.046338959470113704 0 -1 -1
6 1 1 238.7324039657 7.621822009412686 -3.064398273050773 -1.945325839983592 -1 0 0
7 1 1 238.7324039657 6.62114760262741 -1.5222354240735128 -1.723904474607948 0 0 0
8 1 1 238.7324039657 5.1035369696737645 -1.996258938992952 0.8936888498217344 1 0 0
9 1 1 238.7324039657 6.834961576626585 -3.0926496683422884 1.5706751510843813 0 0 0

Velocities

2 -0.08320495639046202 -0.056889708240921225 -0.1345598147444346 0 0 0
3 -0.3420049163016832 -0.052046837892279194 -0.11792646278558393 0 0 0
4 0.005795196915755308 0.11600289681548735 -0.003308905063010849 0 0 0
10 0.036276688751586156 0.1839843099023596 0.5571286704100674 0 0 0
5 0.41490349858172376 0.23827109629575785 0.18740921480317738 0 0 0
1 -0.0955846332278025 -0.3580690778798039 -0.33997683144392454 0 0 0
6 -0.4536106500222903 -0.08090936818390754 -0.10173574395761674 0 0 0
7 0.04863592300529798 0.11794141317053772 -0.1681176969945929 0 0 0
8 0.4850003740965883 0.030659303211393013 0.10952219789929334 0 0 0
9 -0.016206525408714423 -0.1389440271986213 0.011565371876626282 0 0 0

Ellipsoids

2 0.5 1 0.5 0.9237852583388739 0.3829109511045357 0 0
3 1 0.5 0.5 0.9237852583388739 0 0.3829109511045357 0
4 0.5 0.5 1 0.9237852583388739 0 0 0.3829109511045357
10 0.5 1 0.5 0 0.7071067811865476 0 0.7071067811865476
5 0.5 1 0.5 0 0.7071067811865476 0 0.7071067811865476
1 0.5 0.5 1 1 0 0 0
6 0.5 0.5 1 1 0 0 0
7 0.5 1 0.5 0.9237852583388739 0.3829109511045357 0 0
8 1 0.5 0.5 0.9237852583388739 0 0.3829109511045357 0
9 0.5 0.5 1 0.9237852583388739 0 0 0.3829109511045357
