LAMMPS data file via write_data, version 7 Feb 2024, timestep = 27000, units = lj

10 atoms
1 atom types
10 ellipsoids

3 8 xlo xhi
-4 0 ylo yhi
-7 3 zlo zhi

Atoms # ellipsoid/kk

2 1 1 238.7324039657 3.640854181072651 -3.5976295583147606 -5.783198626108763 0 0 0
3 1 1 238.7324039657 3.3268096672110534 -3.3455999726074532 -4.654153184657702 0 0 0
10 1 1 238.7324039657 7.12645289062416 -1.2067838771468744 -5.823010523676663 0 0 1
4 1 1 238.7324039657 4.701850742972444 -2.7551781786929994 -3.578709780950325 0 0 0
6 1 1 238.7324039657 4.935236324526279 -2.6517604953171796 -1.426473545797236 0 0 0
7 1 1 238.7324039657 6.373104395304331 -2.123736631245021 -0.8665042199346574 0 0 0
8 1 1 238.7324039657 7.630035061782496 -2.152621385373017 0.3351256405339716 0 0 0
1 1 1 238.7324039657 3.4674480605725746 -3.810691911280379 2.361723816277859 0 0 -1
9 1 1 238.7324039657 6.917614856220477 -2.3840351296259983 1.511691754518089 0 0 0
5 1 1 238.7324039657 6.199757480106381 -3.0417648548964022 -1.9748591682074115 0 0 0

Velocities

2 -0.08320495639046202 -0.056889708240921225 -0.1345598147444346 0 0 0
3 -0.3420049163016832 -0.052046837892279194 -0.11792646278558393 0 0 0
10 0.036276688751586156 0.1839843099023596 0.5571286704100674 0 0 0
4 0.005795196915755308 0.11600289681548735 -0.003308905063010849 0 0 0
6 -0.4536106500222903 -0.08090936818390754 -0.10173574395761674 0 0 0
7 0.04863592300529798 0.11794141317053772 -0.1681176969945929 0 0 0
8 0.4850003740965883 0.030659303211393013 0.10952219789929334 0 0 0
1 -0.08285972676817413 -0.07748553447626898 -0.48183332709359517 0 0 0
9 -0.016206525408714423 -0.1389440271986213 0.011565371876626282 0 0 0
5 0.4021785921220932 -0.04231244710777892 0.32926571045284714 0 0 0

Ellipsoids

2 0.5 1 0.5 0.9237852583388739 0.3829109511045357 0 0
3 1 0.5 0.5 0.9237852583388739 0 0.3829109511045357 0
10 0.5 1 0.5 0 0.7071067811865476 0 0.7071067811865476
4 0.5 0.5 1 0.9237852583388739 0 0 0.3829109511045357
6 0.5 0.5 1 1 0 0 0
7 0.5 1 0.5 0.9237852583388739 0.3829109511045357 0 0
8 1 0.5 0.5 0.9237852583388739 0 0.3829109511045357 0
1 0.5 1 0.5 0 0.7071067811865476 0 0.7071067811865476
9 0.5 0.5 1 0.9237852583388739 0 0 0.3829109511045357
5 0.5 1 0.5 0 0.7071067811865476 0 0.7071067811865476
