LAMMPS data file via write_data, version 7 Feb 2024, timestep = 3000, units = lj

10 atoms
1 atom types
10 ellipsoids

3 8 xlo xhi
-4 0 ylo yhi
-7 3 zlo zhi

Atoms # ellipsoid/kk

1 1 1 238.7324039657 3.6638039494345134 -3.627121125596085 -6.497242382008979 0 0 0
2 1 1 238.7324039657 3.84167793323918 -3.4599321815266237 -5.450512115953279 0 0 0
3 1 1 238.7324039657 4.106029263604636 -3.235226465094806 -4.422054703293399 0 0 0
4 1 1 238.7324039657 4.697287735948415 -3.0212713624697125 -3.561590945637295 0 0 0
5 1 1 238.7324039657 5.268151194731851 -2.9367574269411505 -2.717726078591651 0 0 0
6 1 1 238.7324039657 5.520281617241394 -2.6329574385716206 -1.6357377761154281 0 0 0
7 1 1 238.7324039657 6.3031744326 -2.2987959205 -0.6179449271 0 0 0
8 1 1 238.7324039657 6.9166825231 -2.1720350919 0.5026608531 0 0 0
9 1 1 238.7324039657 6.9626861728882385 -2.037358760986553 1.6618995702614403 0 0 0
10 1 1 238.7324039657 7.039388837611762 -1.6483462209134516 2.839880667338561 0 0 0

Velocities

1 -0.05563131453710849 -0.05160698797319688 -0.3169893850045158 0 0 0
2 -0.08853936641684461 -0.06346559452557256 -0.2112475021366127 0 0 0
3 -0.1367733390250771 0.011445457434025093 0.10155997466436 0 0 0
4 0.06922073772443804 0.06716240332094209 0.10443951446846879 0 0 0
5 0.11162747183212228 -0.0762669091579584 -0.086125401225479 0 0 0
6 0.10009581042246915 0.11273163090176022 0.4083627992337793 0 0 0
7 0 0 0 0 0 0
8 0 0 0 0 0 0
9 -0.036276688751586156 -0.1839843099023596 -0.5571286704100674 0 0 0
10 0.036276688751586156 0.1839843099023596 0.5571286704100674 0 0 0

Ellipsoids

1 0.5 0.5 1 1 0 0 0
2 0.5 1 0.5 0.9237852583388739 0.3829109511045357 0 0
3 1 0.5 0.5 0.9237852583388739 0 0.3829109511045357 0
4 0.5 0.5 1 0.9237852583388739 0 0 0.3829109511045357
5 0.5 1 0.5 0 0.7071067811865476 0 0.7071067811865476
6 0.5 0.5 1 1 0 0 0
7 0.5 1 0.5 0.9237852583388739 0.3829109511045357 0 0
8 1 0.5 0.5 0.9237852583388739 0 0.3829109511045357 0
9 0.5 0.5 1 0.9237852583388739 0 0 0.3829109511045357
10 0.5 1 0.5 0 0.7071067811865476 0 0.7071067811865476
