LAMMPS data file via write_data, version 7 Feb 2024, timestep = 26000, units = lj

10 atoms
1 atom types
10 ellipsoids

3 8 xlo xhi
-4 0 ylo yhi
-7 3 zlo zhi

Atoms # ellipsoid/kk

5 1 1 238.7324039657 6.159539620894559 -3.037533610185796 -2.007785739252667 0 0 0
2 1 1 238.7324039657 3.649174676711798 -3.591940587490558 -5.769742644633921 0 0 0
3 1 1 238.7324039657 3.3610101588413297 -3.3403952888181694 -4.642360538379549 0 0 0
4 1 1 238.7324039657 4.701271223280654 -2.766778468374723 -3.578378890444219 0 0 0
10 1 1 238.7324039657 7.122825221748643 -1.2251823081371485 -5.87872339071731 0 0 1
6 1 1 238.7324039657 4.980597389528249 -2.643669558498874 -1.416299971401425 0 0 0
7 1 1 238.7324039657 6.368240803003879 -2.1355307725619332 -0.8496924502351811 0 0 0
8 1 1 238.7324039657 7.581535024373191 -2.1556873156941947 0.3241734207440546 0 0 0
9 1 1 238.7324039657 6.919235508761534 -2.370140726906071 1.5105352173305147 0 0 0
1 1 1 238.7324039657 3.475734033249455 -3.8029433578326173 2.409907148987365 0 0 -1

Velocities

5 0.4021785921220932 -0.04231244710777892 0.32926571045284714 0 0 0
2 -0.08320495639046202 -0.056889708240921225 -0.1345598147444346 0 0 0
3 -0.3420049163016832 -0.052046837892279194 -0.11792646278558393 0 0 0
4 0.005795196915755308 0.11600289681548735 -0.003308905063010849 0 0 0
10 0.036276688751586156 0.1839843099023596 0.5571286704100674 0 0 0
6 -0.4536106500222903 -0.08090936818390754 -0.10173574395761674 0 0 0
7 0.04863592300529798 0.11794141317053772 -0.1681176969945929 0 0 0
8 0.4850003740965883 0.030659303211393013 0.10952219789929334 0 0 0
9 -0.016206525408714423 -0.1389440271986213 0.011565371876626282 0 0 0
1 -0.08285972676817413 -0.07748553447626898 -0.48183332709359517 0 0 0

Ellipsoids

5 0.5 1 0.5 0 0.7071067811865476 0 0.7071067811865476
2 0.5 1 0.5 0.9237852583388739 0.3829109511045357 0 0
3 1 0.5 0.5 0.9237852583388739 0 0.3829109511045357 0
4 0.5 0.5 1 0.9237852583388739 0 0 0.3829109511045357
10 0.5 1 0.5 0 0.7071067811865476 0 0.7071067811865476
6 0.5 0.5 1 1 0 0 0
7 0.5 1 0.5 0.9237852583388739 0.3829109511045357 0 0
8 1 0.5 0.5 0.9237852583388739 0 0.3829109511045357 0
9 0.5 0.5 1 0.9237852583388739 0 0 0.3829109511045357
1 0.5 0.5 1 1 0 0 0
