LAMMPS data file via write_data, version 7 Feb 2024, timestep = 71000, units = lj

10 atoms
1 atom types
10 ellipsoids

3 8 xlo xhi
-4 0 ylo yhi
-7 3 zlo zhi

Atoms # ellipsoid/kk

2 1 1 238.7324039657 3.2747523729501857 -3.8479442745796706 -6.375261811001784 0 0 0
3 1 1 238.7324039657 6.821988035487479 -3.5746060593359426 -5.173029620896415 -1 0 0
4 1 1 238.7324039657 4.727349609411211 -2.244765432697163 -3.593268963218995 0 0 0
10 1 1 238.7324039657 7.286070321146889 -0.3972529135751262 -3.3716443738831843 0 0 1
6 1 1 238.7324039657 7.939349464429224 -3.0077617153226326 -1.8741108192129157 -1 0 0
7 1 1 238.7324039657 6.587102456524242 -1.6047944132934513 -1.606222086711614 0 0 0
5 1 1 238.7324039657 7.969343285426543 -3.2279396221630803 -0.5260900422161776 0 0 0
8 1 1 238.7324039657 4.764036707808631 -2.017720451241196 0.8170233112919267 1 0 0
1 1 1 238.7324039657 3.1028652627898436 -0.1516282629792535 0.24165717706624218 0 -1 -1
9 1 1 238.7324039657 6.846306144413982 -2.9953888493027976 1.5625793907713608 0 0 0

Velocities

2 -0.08320495639046202 -0.056889708240921225 -0.1345598147444346 0 0 0
3 -0.3420049163016832 -0.052046837892279194 -0.11792646278558393 0 0 0
4 0.005795196915755308 0.11600289681548735 -0.003308905063010849 0 0 0
10 0.036276688751586156 0.1839843099023596 0.5571286704100674 0 0 0
6 -0.4536106500222903 -0.08090936818390754 -0.10173574395761674 0 0 0
7 0.04863592300529798 0.11794141317053772 -0.1681176969945929 0 0 0
5 0.4021785921220932 -0.04231244710777892 0.32926571045284714 0 0 0
8 0.4850003740965883 0.030659303211393013 0.10952219789929334 0 0 0
1 -0.08285972676817413 -0.07748553447626898 -0.48183332709359517 0 0 0
9 -0.016206525408714423 -0.1389440271986213 0.011565371876626282 0 0 0

Ellipsoids

2 0.5 1 0.5 0.9237852583388739 0.3829109511045357 0 0
3 1 0.5 0.5 0.9237852583388739 0 0.3829109511045357 0
4 0.5 0.5 1 0.9237852583388739 0 0 0.3829109511045357
10 0.5 1 0.5 0 0.7071067811865476 0 0.7071067811865476
6 0.5 0.5 1 1 0 0 0
7 0.5 1 0.5 0.9237852583388739 0.3829109511045357 0 0
5 0.5 1 0.5 0 0.7071067811865476 0 0.7071067811865476
8 1 0.5 0.5 0.9237852583388739 0 0.3829109511045357 0
1 0.5 1 0.5 0 0.7071067811865476 0 0.7071067811865476
9 0.5 0.5 1 0.9237852583388739 0 0 0.3829109511045357
