LAMMPS data file via write_data, version 7 Feb 2024, timestep = 10, units = lj

10 atoms
1 atom types
10 ellipsoids

3 8 xlo xhi
-4 0 ylo yhi
-7 3 zlo zhi

Atoms # ellipsoid/kk

1 1 1 238.7324039657 3.6720746587887416 -3.6194759247815895 -6.45052273812591 0 0 0
2 1 1 238.7324039657 3.8592287542635995 -3.447169012988945 -5.403509196439759 0 0 0
3 1 1 238.7324039657 4.125980982055592 -3.238668560436976 -4.445622673978993 0 0 0
4 1 1 238.7324039657 4.67486482607586 -3.033956525825688 -3.5957207109050673 0 0 0
5 1 1 238.7324039657 5.265969399091601 -2.9172643824166364 -2.6675689602231163 0 0 0
6 1 1 238.7324039657 5.4991130739246055 -2.6567315937501657 -1.721919721927155 0 0 0
7 1 1 238.7324039657 6.3031744326 -2.2987959205 -0.6179449271 0 0 0
8 1 1 238.7324039657 6.9166825231 -2.1720350919 0.5026608531 0 0 0
9 1 1 238.7324039657 6.971247800942527 -1.9939367926826594 1.7933869969912906 0 0 0
10 1 1 238.7324039657 7.030827209557473 -1.6917681892173404 2.70839324060871 0 0 0

Velocities

1 -0.0001772226576096117 -0.0001631633170174578 -0.0009914527280892845 0 0 0
2 -0.0005332703202941846 -0.00039217602009273135 -0.0015598706407686652 0 0 0
3 -0.0004070897971259525 0.00013852486459212975 0.0008208364057398341 0 0 0
4 0.0007849484796542238 0.00035114774596117706 0.001208184634745582 0 0 0
5 -0.0003726097707374303 -0.0007224272742816159 -0.002338222712720116 0 0 0
6 0.0007052440661129552 0.0007880940008384981 0.00286052504109265 0 0 0
7 0 0 0 0 0 0
8 0 0 0 0 0 0
9 -0.00036250940299052133 -0.0018385372159806213 -0.005567332318621698 0 0 0
10 0.00036250940299052133 0.0018385372159806213 0.005567332318621698 0 0 0

Ellipsoids

1 0.5 0.5 1 1 0 0 0
2 0.5 1 0.5 0.9237852583388739 0.3829109511045357 0 0
3 1 0.5 0.5 0.9237852583388739 0 0.3829109511045357 0
4 0.5 0.5 1 0.9237852583388739 0 0 0.3829109511045357
5 0.5 1 0.5 0 0.7071067811865476 0 0.7071067811865476
6 0.5 0.5 1 1 0 0 0
7 0.5 1 0.5 0.9237852583388739 0.3829109511045357 0 0
8 1 0.5 0.5 0.9237852583388739 0 0.3829109511045357 0
9 0.5 0.5 1 0.9237852583388739 0 0 0.3829109511045357
10 0.5 1 0.5 0 0.7071067811865476 0 0.7071067811865476
