LAMMPS data file via write_data, version 7 Feb 2024, timestep = 84000, units = lj

10 atoms
1 atom types
10 ellipsoids

3 8 xlo xhi
-4 0 ylo yhi
-7 3 zlo zhi

Atoms # ellipsoid/kk

2 1 1 238.7324039657 3.1665859296412755 -3.921900895294303 -6.550189570174722 0 0 0
3 1 1 238.7324039657 6.3773816442996605 -3.6422669485966326 -5.326334022512398 -1 0 0
4 1 1 238.7324039657 4.734883365404483 -2.093961666834757 -3.5975705397983746 0 0 0
10 1 1 238.7324039657 7.333230016528605 -0.1580733107021465 -2.6473771023489996 0 0 1
6 1 1 238.7324039657 7.349655619400867 -3.1129438939606073 -2.0063672863584574 -1 0 0
5 1 1 238.7324039657 3.5026885539962365 -3.0216439071919408 -0.23244570844657056 1 0 0
1 1 1 238.7324039657 7.984634519179471 -0.5136613540078162 -0.2503250583364359 -1 -1 -1
9 1 1 238.7324039657 6.825237661380245 -3.176016084661852 1.5776143742098274 0 0 0
7 1 1 238.7324039657 6.650329156430125 -1.4514705761707083 -1.8247750928048057 0 0 0
8 1 1 238.7324039657 5.394537194129593 -1.9778633570658855 0.9594021685615695 1 0 0

Velocities

2 -0.08320495639046202 -0.056889708240921225 -0.1345598147444346 0 0 0
3 -0.3420049163016832 -0.052046837892279194 -0.11792646278558393 0 0 0
4 0.005795196915755308 0.11600289681548735 -0.003308905063010849 0 0 0
10 0.036276688751586156 0.1839843099023596 0.5571286704100674 0 0 0
6 -0.4536106500222903 -0.08090936818390754 -0.10173574395761674 0 0 0
5 0.41490349858172376 0.23827109629575785 0.18740921480317738 0 0 0
1 -0.0955846332278025 -0.3580690778798039 -0.33997683144392454 0 0 0
9 -0.016206525408714423 -0.1389440271986213 0.011565371876626282 0 0 0
7 0.04863592300529798 0.11794141317053772 -0.1681176969945929 0 0 0
8 0.4850003740965883 0.030659303211393013 0.10952219789929334 0 0 0

Ellipsoids

2 0.5 1 0.5 0.9237852583388739 0.3829109511045357 0 0
3 1 0.5 0.5 0.9237852583388739 0 0.3829109511045357 0
4 0.5 0.5 1 0.9237852583388739 0 0 0.3829109511045357
10 0.5 0.5 1 1 0 0 0
6 0.5 0.5 1 1 0 0 0
5 0.5 1 0.5 0 0.7071067811865476 0 0.7071067811865476
1 0.5 0.5 1 1 0 0 0
9 0.5 0.5 1 1 0 0 0
7 0.5 1 0.5 0.9237852583388739 0.3829109511045357 0 0
8 0.5 1 0.5 0 0.7071067811865476 0 0.7071067811865476
