LAMMPS data file via write_data, version 7 Feb 2024, timestep = 74000, units = lj

10 atoms
1 atom types
10 ellipsoids

3 8 xlo xhi
-4 0 ylo yhi
-7 3 zlo zhi

Atoms # ellipsoid/kk

2 1 1 238.7324039657 3.249790886032745 -3.865011187052278 -6.415629755426308 0 0 0
3 1 1 238.7324039657 6.719386560597982 -3.590220110703794 -5.2084075597308725 -1 0 0
4 1 1 238.7324039657 4.729088168486581 -2.2099645636519925 -3.5942616347373133 0 0 0
10 1 1 238.7324039657 7.296953327773439 -0.3420576206044706 -3.204505772759911 0 0 1
6 1 1 238.7324039657 7.803266269421982 -3.03203452577755 -1.9046315424003484 -1 0 0
7 1 1 238.7324039657 6.6016932334256 -1.569411989342049 -1.6566573958100428 0 0 0
5 1 1 238.7324039657 3.089876835261082 -3.236335082320731 -0.43002344932389236 1 0 0
8 1 1 238.7324039657 4.9095368200365455 -2.008522660277663 0.8498799706618443 1 0 0
1 1 1 238.7324039657 3.0781273725606817 -0.17917219729650247 0.09982029918171899 0 -1 -1
9 1 1 238.7324039657 6.841444186790812 -3.0370720574625794 1.5660490023340838 0 0 0

Velocities

2 -0.08320495639046202 -0.056889708240921225 -0.1345598147444346 0 0 0
3 -0.3420049163016832 -0.052046837892279194 -0.11792646278558393 0 0 0
4 0.005795196915755308 0.11600289681548735 -0.003308905063010849 0 0 0
10 0.036276688751586156 0.1839843099023596 0.5571286704100674 0 0 0
6 -0.4536106500222903 -0.08090936818390754 -0.10173574395761674 0 0 0
7 0.04863592300529798 0.11794141317053772 -0.1681176969945929 0 0 0
5 0.4009302094092325 0.03531048756415866 0.28184523806634254 0 0 0
8 0.4850003740965883 0.030659303211393013 0.10952219789929334 0 0 0
1 -0.08161134405531184 -0.15510846914820667 -0.43441285470709057 0 0 0
9 -0.016206525408714423 -0.1389440271986213 0.011565371876626282 0 0 0

Ellipsoids

2 0.5 1 0.5 0.9237852583388739 0.3829109511045357 0 0
3 1 0.5 0.5 0.9237852583388739 0 0.3829109511045357 0
4 0.5 0.5 1 0.9237852583388739 0 0 0.3829109511045357
10 0.5 1 0.5 0 0.7071067811865476 0 0.7071067811865476
6 0.5 0.5 1 1 0 0 0
7 0.5 1 0.5 0.9237852583388739 0.3829109511045357 0 0
5 0.5 1 0.5 0 0.7071067811865476 0 0.7071067811865476
8 1 0.5 0.5 0.9237852583388739 0 0.3829109511045357 0
1 0.5 1 0.5 0 0.7071067811865476 0 0.7071067811865476
9 0.5 0.5 1 0.9237852583388739 0 0 0.3829109511045357
