LAMMPS data file via write_data, version 7 Feb 2024, timestep = 15000, units = lj

10 atoms
1 atom types
10 ellipsoids

3 8 xlo xhi
-4 0 ylo yhi
-7 3 zlo zhi

Atoms # ellipsoid/kk

5 1 1 238.7324039657 5.717143169564519 -2.9909899183691264 -2.3699780207504753 0 0 0
2 1 1 238.7324039657 3.7407001287424144 -3.5293619084243306 -5.621726848410666 0 0 0
3 1 1 238.7324039657 3.7372155667743687 -3.283143767136047 -4.512641429319871 0 0 0
4 1 1 238.7324039657 4.694896506670962 -2.894381654873682 -3.5747390948770517 0 0 0
10 1 1 238.7324039657 7.082920864117961 -1.427565049030163 -6.491564928168346 0 0 1
6 1 1 238.7324039657 5.478241772570647 -2.555131097169585 -1.3053727054792648 0 0 0
7 1 1 238.7324039657 6.316068619678293 -2.264804483375939 -0.663780931109237 0 0 0
8 1 1 238.7324039657 7.048034612870839 -2.18941254922715 0.20369900305496752 0 0 0
9 1 1 238.7324039657 6.9370626867131575 -2.217302296986871 1.4978133082671967 0 0 0
1 1 1 238.7324039657 3.5668797326951376 -3.7177092699072385 2.9399238087919315 0 0 -1

Velocities

5 0.4021785921220932 -0.04231244710777892 0.32926571045284714 0 0 0
2 -0.08320495639046202 -0.056889708240921225 -0.1345598147444346 0 0 0
3 -0.3420049163016832 -0.052046837892279194 -0.11792646278558393 0 0 0
4 0.005795196915755308 0.11600289681548735 -0.003308905063010849 0 0 0
10 0.036276688751586156 0.1839843099023596 0.5571286704100674 0 0 0
6 -0.4166356003538046 -0.0680584759000211 -0.07411482867348182 0 0 0
7 0.011660873336813383 0.10509052088665129 -0.19573861227872918 0 0 0
8 0.4850003740965883 0.030659303211393013 0.10952219789929334 0 0 0
9 -0.016206525408714423 -0.1389440271986213 0.011565371876626282 0 0 0
1 -0.08285972676817413 -0.07748553447626898 -0.48183332709359517 0 0 0

Ellipsoids

5 0.5 1 0.5 0 0.7071067811865476 0 0.7071067811865476
2 0.5 1 0.5 0.9237852583388739 0.3829109511045357 0 0
3 1 0.5 0.5 0.9237852583388739 0 0.3829109511045357 0
4 0.5 0.5 1 0.9237852583388739 0 0 0.3829109511045357
10 0.5 1 0.5 0 0.7071067811865476 0 0.7071067811865476
6 0.5 0.5 1 1 0 0 0
7 0.5 1 0.5 0.9237852583388739 0.3829109511045357 0 0
8 1 0.5 0.5 0.9237852583388739 0 0.3829109511045357 0
9 0.5 0.5 1 0.9237852583388739 0 0 0.3829109511045357
1 0.5 0.5 1 1 0 0 0
