LAMMPS data file via write_data, version 7 Feb 2024, timestep = 250000, units = lj

10 atoms
1 atom types
10 ellipsoids

3 8 xlo xhi
-4 0 ylo yhi
-7 3 zlo zhi

Atoms # ellipsoid/kk

1 1 1 238.7324039657 5.132611500409403 -3.5465065453384437 -5.525776969259163 -1 -1 -1
7 1 1 238.7324039657 5.341087728185953 -1.5931956175899844 -6.508710160448542 0 0 0
4 1 1 238.7324039657 4.068509207400283 -0.5456902149875169 -3.391555209127496 0 0 0
10 1 1 238.7324039657 3.954780141742654 -3.7033279432141217 1.7578348853436228 1 1 1
5 1 1 238.7324039657 5.170956202763932 -2.3102019897241712 0.8739755135897667 2 0 0
2 1 1 238.7324039657 4.290642954034968 -0.9675276157689834 2.687343355247911 0 -1 -1
9 1 1 238.7324039657 5.451093033955723 -2.084588273761459 2.4680465380558103 0 0 0
6 1 1 238.7324039657 7.854640495750588 -2.35354328639906 2.3289568956478672 -2 0 0
8 1 1 238.7324039657 6.796235683543646 -2.37214636392829 2.8530709454265404 2 0 0
3 1 1 238.7324039657 6.258606712595806 -3.5930741437797455 2.5584463675776945 -2 0 -1

Velocities

1 -0.1646179624722935 0.16196154073820096 -0.43300631895731023 0 0 0
7 -0.31884794027004915 0.06595471417753819 0.4116303441905191 0 0 0
4 -0.2044949312443225 0.011856470480367073 0.0689484016048729 0 0 0
10 0.16765844271003483 0.1351878361385018 0.08682221692345896 0 0 0
5 0.2292610430186563 -0.09029176998413001 -0.2741155200124653 0 0 0
2 0.47937496076462466 0.039616899045735114 0.09374489085879867 0 0 0
9 0.036202058937426736 -0.11915336995756043 -0.2986633376806356 0 0 0
6 -0.03316648271576922 -0.16514542962192472 0.4744805488551024 0 0 0
8 -0.030163055085993203 -0.25148923887144653 0.13316837180607732 0 0 0
3 -0.16120613364232309 0.2115023478547144 -0.2630095975884108 0 0 0

Ellipsoids

1 1 0.5 0.5 0.9237852583388739 0 0.3829109511045357 0
7 0.5 1 0.5 0.9237852583388739 0.3829109511045357 0 0
4 0.5 0.5 1 1 0 0 0
10 0.5 1 0.5 0 0.7071067811865476 0 0.7071067811865476
5 0.5 1 0.5 0 0.7071067811865476 0 0.7071067811865476
2 0.5 0.5 1 1 0 0 0
9 0.5 1 0.5 0.9237852583388739 0.3829109511045357 0 0
6 0.5 0.5 1 1 0 0 0
8 1 0.5 0.5 0.9237852583388739 0 0.3829109511045357 0
3 1 0.5 0.5 0.9237852583388739 0 0.3829109511045357 0
