LAMMPS data file via write_data, version 7 Feb 2024, timestep = 91000, units = lj

10 atoms
1 atom types
10 ellipsoids

3 8 xlo xhi
-4 0 ylo yhi
-7 3 zlo zhi

Atoms # ellipsoid/kk

2 1 1 238.7324039657 3.108342460167247 -3.9617236910637206 -6.644381440498612 0 0 0
3 1 1 238.7324039657 6.137978202890835 -3.6786997351216195 -5.408882546459466 -1 0 0
4 1 1 238.7324039657 4.738940003247014 -2.012759639062692 -3.5998867733411175 0 0 0
10 1 1 238.7324039657 7.37710534695805 -0.1380429216277672 -2.303457432042733 0 0 1
6 1 1 238.7324039657 7.013646516083652 -3.0608218238320277 -2.0315119081479036 -1 0 0
5 1 1 238.7324039657 3.793121003002298 -2.85485413978347 -0.10125925808430754 1 0 0
1 1 1 238.7324039657 7.917725275921109 -0.7643097085233087 -0.48830884034711153 -1 -1 -1
9 1 1 238.7324039657 6.813893093592848 -3.2732769037013427 1.585710134522848 0 0 0
7 1 1 238.7324039657 6.684374302533293 -1.3689115869507698 -1.9424574807011397 0 0 0
8 1 1 238.7324039657 5.734037455994726 -1.9564018448176412 1.036067707091377 1 0 0

Velocities

2 -0.08320495639046202 -0.056889708240921225 -0.1345598147444346 0 0 0
3 -0.3420049163016832 -0.052046837892279194 -0.11792646278558393 0 0 0
4 0.005795196915755308 0.11600289681548735 -0.003308905063010849 0 0 0
10 0.10551538557205982 -0.18128548212652976 0.4097244676007491 0 0 0
6 -0.5228493468427692 0.28436042384498145 0.04566845885170409 0 0 0
5 0.41490349858172376 0.23827109629575785 0.18740921480317738 0 0 0
1 -0.0955846332278025 -0.3580690778798039 -0.33997683144392454 0 0 0
9 -0.016206525408714423 -0.1389440271986213 0.011565371876626282 0 0 0
7 0.04863592300529798 0.11794141317053772 -0.1681176969945929 0 0 0
8 0.4850003740965883 0.030659303211393013 0.10952219789929334 0 0 0

Ellipsoids

2 0.5 1 0.5 0.9237852583388739 0.3829109511045357 0 0
3 1 0.5 0.5 0.9237852583388739 0 0.3829109511045357 0
4 0.5 0.5 1 0.9237852583388739 0 0 0.3829109511045357
10 0.5 0.5 1 1 0 0 0
6 0.5 0.5 1 1 0 0 0
5 0.5 1 0.5 0 0.7071067811865476 0 0.7071067811865476
1 0.5 0.5 1 1 0 0 0
9 0.5 0.5 1 1 0 0 0
7 0.5 1 0.5 0.9237852583388739 0.3829109511045357 0 0
8 0.5 1 0.5 0 0.7071067811865476 0 0.7071067811865476
