LAMMPS data file via write_data, version 7 Feb 2024, timestep = 30000, units = lj

10 atoms
1 atom types
10 ellipsoids

3 8 xlo xhi
-4 0 ylo yhi
-7 3 zlo zhi

Atoms # ellipsoid/kk

2 1 1 238.7324039657 3.6158926941552103 -3.614696470787368 -5.823566570533287 0 0 0
3 1 1 238.7324039657 3.2242081923202246 -3.3612140239753048 -4.689531123492159 0 0 0
10 1 1 238.7324039657 7.1373358972507095 -1.1515885841760523 -5.655871922554722 0 0 1
4 1 1 238.7324039657 4.703589302047814 -2.7203773096478288 -3.5797024524686436 0 0 0
6 1 1 238.7324039657 4.79915312952037 -2.676033305772097 -1.4569942689846687 0 0 0
7 1 1 238.7324039657 6.387695172205689 -2.088354207294285 -0.9169395290330863 0 0 0
8 1 1 238.7324039657 7.77553517401041 -2.1434235944094837 0.3679822999037226 0 0 0
1 1 1 238.7324039657 3.442590142541934 -3.833937571623664 2.217173818149341 0 0 -1
9 1 1 238.7324039657 6.912752898597307 -2.42571833778578 1.515161366080812 0 0 0
5 1 1 238.7324039657 6.320411057741847 -3.054458589028221 -1.8760794550716455 0 0 0

Velocities

2 -0.08320495639046202 -0.056889708240921225 -0.1345598147444346 0 0 0
3 -0.3420049163016832 -0.052046837892279194 -0.11792646278558393 0 0 0
10 0.036276688751586156 0.1839843099023596 0.5571286704100674 0 0 0
4 0.005795196915755308 0.11600289681548735 -0.003308905063010849 0 0 0
6 -0.4536106500222903 -0.08090936818390754 -0.10173574395761674 0 0 0
7 0.04863592300529798 0.11794141317053772 -0.1681176969945929 0 0 0
8 0.4850003740965883 0.030659303211393013 0.10952219789929334 0 0 0
1 -0.08285972676817413 -0.07748553447626898 -0.48183332709359517 0 0 0
9 -0.016206525408714423 -0.1389440271986213 0.011565371876626282 0 0 0
5 0.4021785921220932 -0.04231244710777892 0.32926571045284714 0 0 0

Ellipsoids

2 0.5 1 0.5 0.9237852583388739 0.3829109511045357 0 0
3 1 0.5 0.5 0.9237852583388739 0 0.3829109511045357 0
10 0.5 1 0.5 0 0.7071067811865476 0 0.7071067811865476
4 0.5 0.5 1 0.9237852583388739 0 0 0.3829109511045357
6 0.5 0.5 1 1 0 0 0
7 0.5 1 0.5 0.9237852583388739 0.3829109511045357 0 0
8 1 0.5 0.5 0.9237852583388739 0 0.3829109511045357 0
1 0.5 1 0.5 0 0.7071067811865476 0 0.7071067811865476
9 0.5 0.5 1 0.9237852583388739 0 0 0.3829109511045357
5 0.5 1 0.5 0 0.7071067811865476 0 0.7071067811865476
