LAMMPS data file via write_data, version 7 Feb 2024, timestep = 80000, units = lj

10 atoms
1 atom types
10 ellipsoids

3 8 xlo xhi
-4 0 ylo yhi
-7 3 zlo zhi

Atoms # ellipsoid/kk

2 1 1 238.7324039657 3.1998679121978633 -3.899145011997493 -6.496365644275357 0 0 0
3 1 1 238.7324039657 6.514183610818989 -3.621448213439497 -5.279163437399788 -1 0 0
4 1 1 238.7324039657 4.732565286637322 -2.140362825561651 -3.59624697777395 0 0 0
10 1 1 238.7324039657 7.318719341026538 -0.23166703466313168 -2.870228570513364 0 0 1
5 1 1 238.7324039657 3.336727154564201 -3.116952345711067 -0.30740939436778875 1 0 0
1 1 1 238.7324039657 3.0228683724699636 -0.3704337228559053 -0.11433432575890262 0 -1 -1
6 1 1 238.7324039657 7.531099879408746 -3.0805801466873843 -1.9656729887752138 -1 0 0
7 1 1 238.7324039657 6.630874787228315 -1.4986471414392446 -1.7575280140069005 0 0 0
8 1 1 238.7324039657 5.200537044492374 -1.9901270783505964 0.9155932894016794 1 0 0
9 1 1 238.7324039657 6.831720271544472 -3.120438473782143 1.57298822545953 0 0 0

Velocities

2 -0.08320495639046202 -0.056889708240921225 -0.1345598147444346 0 0 0
3 -0.3420049163016832 -0.052046837892279194 -0.11792646278558393 0 0 0
4 0.005795196915755308 0.11600289681548735 -0.003308905063010849 0 0 0
10 0.036276688751586156 0.1839843099023596 0.5571286704100674 0 0 0
5 0.41490349858172376 0.23827109629575785 0.18740921480317738 0 0 0
1 -0.0955846332278025 -0.3580690778798039 -0.33997683144392454 0 0 0
6 -0.4536106500222903 -0.08090936818390754 -0.10173574395761674 0 0 0
7 0.04863592300529798 0.11794141317053772 -0.1681176969945929 0 0 0
8 0.4850003740965883 0.030659303211393013 0.10952219789929334 0 0 0
9 -0.016206525408714423 -0.1389440271986213 0.011565371876626282 0 0 0

Ellipsoids

2 0.5 1 0.5 0.9237852583388739 0.3829109511045357 0 0
3 1 0.5 0.5 0.9237852583388739 0 0.3829109511045357 0
4 0.5 0.5 1 0.9237852583388739 0 0 0.3829109511045357
10 0.5 1 0.5 0 0.7071067811865476 0 0.7071067811865476
5 0.5 1 0.5 0 0.7071067811865476 0 0.7071067811865476
1 0.5 1 0.5 0 0.7071067811865476 0 0.7071067811865476
6 0.5 0.5 1 1 0 0 0
7 0.5 1 0.5 0.9237852583388739 0.3829109511045357 0 0
8 1 0.5 0.5 0.9237852583388739 0 0.3829109511045357 0
9 0.5 0.5 1 0.9237852583388739 0 0 0.3829109511045357
