LAMMPS data file via write_data, version 7 Feb 2024, timestep = 10000, units = lj

10 atoms
1 atom types
10 ellipsoids

3 8 xlo xhi
-4 0 ylo yhi
-7 3 zlo zhi

Atoms # ellipsoid/kk

1 1 1 238.7324039657 3.608309596079539 -3.67896650266843 -6.819159527660538 0 0 0
2 1 1 238.7324039657 3.782302606938149 -3.500917054303318 -5.554446941036459 0 0 0
3 1 1 238.7324039657 3.90821802492575 -3.257120348189628 -4.453678197929108 0 0 0
4 1 1 238.7324039657 4.691998908212011 -2.9523831032823 -3.573084642346521 0 0 0
5 1 1 238.7324039657 5.51605387350541 -2.969833694816095 -2.534610875976752 0 0 0
10 1 1 238.7324039657 7.064782519740378 -1.5195572039815333 -6.770129263373802 0 0 1
6 1 1 238.7324039657 5.582932624448123 -2.556788242738158 -1.357845683052251 0 0 0
7 1 1 238.7324039657 6.309731075879553 -2.2962084457633996 -0.6112978542580334 0 0 0
8 1 1 238.7324039657 6.909668481252396 -2.190197115370171 0.28385452530322475 0 0 0
9 1 1 238.7324039657 6.945165949418441 -2.147830283387235 1.492030622329325 0 0 0

Velocities

1 -0.08285972676817413 -0.07748553447626898 -0.48183332709359517 0 0 0
2 -0.08320495639046202 -0.056889708240921225 -0.1345598147444346 0 0 0
3 -0.3420049163016832 -0.052046837892279194 -0.11792646278558393 0 0 0
4 0.005795196915755308 0.11600289681548735 -0.003308905063010849 0 0 0
5 0.4021785921220932 -0.04231244710777892 0.32926571045284714 0 0 0
10 0.036276688751586156 0.1839843099023596 0.5571286704100674 0 0 0
6 0.005037652798264877 0.07789534620901714 0.30760780827127776 0 0 0
7 0.06810589231581007 0.029993148833478783 0.05982217919119501 0 0 0
8 0.006882101965521601 -0.0401971468444734 -0.5277612305153889 0 0 0
9 -0.016206525408714423 -0.1389440271986213 0.011565371876626282 0 0 0

Ellipsoids

1 0.5 0.5 1 1 0 0 0
2 0.5 1 0.5 0.9237852583388739 0.3829109511045357 0 0
3 1 0.5 0.5 0.9237852583388739 0 0.3829109511045357 0
4 0.5 0.5 1 0.9237852583388739 0 0 0.3829109511045357
5 0.5 1 0.5 0 0.7071067811865476 0 0.7071067811865476
10 0.5 1 0.5 0 0.7071067811865476 0 0.7071067811865476
6 0.5 0.5 1 1 0 0 0
7 0.5 1 0.5 0.9237852583388739 0.3829109511045357 0 0
8 1 0.5 0.5 0.9237852583388739 0 0.3829109511045357 0
9 0.5 0.5 1 0.9237852583388739 0 0 0.3829109511045357
