LAMMPS data file via write_data, version 7 Feb 2024, timestep = 82000, units = lj

10 atoms
1 atom types
10 ellipsoids

3 8 xlo xhi
-4 0 ylo yhi
-7 3 zlo zhi

Atoms # ellipsoid/kk

2 1 1 238.7324039657 3.1832269209195694 -3.910522953645898 -6.523277607225039 0 0 0
3 1 1 238.7324039657 6.445782627559325 -3.631857581018065 -5.302748729956093 -1 0 0
4 1 1 238.7324039657 4.733724326020902 -2.117162246198204 -3.5969087587861623 0 0 0
10 1 1 238.7324039657 7.3259746787775715 -0.1948701726826391 -2.758802836431182 0 0 1
5 1 1 238.7324039657 3.419707854280219 -3.069298126451504 -0.26992755140719266 1 0 0
1 1 1 238.7324039657 3.0037514458247174 -0.44204753843187133 -0.18232969204767144 0 -1 -1
6 1 1 238.7324039657 7.4403777494048065 -3.096762020323996 -1.9860201375668356 -1 0 0
7 1 1 238.7324039657 6.64060197182922 -1.4750588588049764 -1.791151553405853 0 0 0
8 1 1 238.7324039657 5.2975371193109835 -1.983995217708241 0.9374977289816244 1 0 0
9 1 1 238.7324039657 6.828478966462359 -3.1482272792219974 1.5753012998346787 0 0 0

Velocities

2 -0.08320495639046202 -0.056889708240921225 -0.1345598147444346 0 0 0
3 -0.3420049163016832 -0.052046837892279194 -0.11792646278558393 0 0 0
4 0.005795196915755308 0.11600289681548735 -0.003308905063010849 0 0 0
10 0.036276688751586156 0.1839843099023596 0.5571286704100674 0 0 0
5 0.41490349858172376 0.23827109629575785 0.18740921480317738 0 0 0
1 -0.0955846332278025 -0.3580690778798039 -0.33997683144392454 0 0 0
6 -0.4536106500222903 -0.08090936818390754 -0.10173574395761674 0 0 0
7 0.04863592300529798 0.11794141317053772 -0.1681176969945929 0 0 0
8 0.4850003740965883 0.030659303211393013 0.10952219789929334 0 0 0
9 -0.016206525408714423 -0.1389440271986213 0.011565371876626282 0 0 0

Ellipsoids

2 0.5 1 0.5 0.9237852583388739 0.3829109511045357 0 0
3 1 0.5 0.5 0.9237852583388739 0 0.3829109511045357 0
4 0.5 0.5 1 0.9237852583388739 0 0 0.3829109511045357
10 0.5 1 0.5 0 0.7071067811865476 0 0.7071067811865476
5 0.5 1 0.5 0 0.7071067811865476 0 0.7071067811865476
1 0.5 0.5 1 1 0 0 0
6 0.5 0.5 1 1 0 0 0
7 0.5 1 0.5 0.9237852583388739 0.3829109511045357 0 0
8 1 0.5 0.5 0.9237852583388739 0 0.3829109511045357 0
9 0.5 0.5 1 0.9237852583388739 0 0 0.3829109511045357
