LAMMPS data file via write_data, version 7 Feb 2024, timestep = 70000, units = lj

10 atoms
1 atom types
10 ellipsoids

3 8 xlo xhi
-4 0 ylo yhi
-7 3 zlo zhi

Atoms # ellipsoid/kk

2 1 1 238.7324039657 3.2830728685893327 -3.842255303755468 -6.361805829526943 0 0 0
3 1 1 238.7324039657 6.856188527117311 -3.5694013755466587 -5.161236974618262 -1 0 0
4 1 1 238.7324039657 4.7267700897194205 -2.2563657223788867 -3.592938072712889 0 0 0
10 1 1 238.7324039657 7.2824426522713726 -0.41565134456534475 -3.4273572409242754 0 0 1
6 1 1 238.7324039657 7.984710529431638 -2.999670778504327 -1.8639372448171048 -1 0 0
7 1 1 238.7324039657 6.58223886422379 -1.6165885546105854 -1.5894103170121376 0 0 0
5 1 1 238.7324039657 7.929125426214721 -3.223708377452474 -0.5590166132614329 0 0 0
8 1 1 238.7324039657 4.7155366703993264 -2.020786381562374 0.8060710915019542 1 0 0
1 1 1 238.7324039657 3.111151235466724 -0.14387970953163057 0.2898405097755865 0 -1 -1
9 1 1 238.7324039657 6.847926796955039 -2.9814944465828703 1.5614228535837864 0 0 0

Velocities

2 -0.08320495639046202 -0.056889708240921225 -0.1345598147444346 0 0 0
3 -0.3420049163016832 -0.052046837892279194 -0.11792646278558393 0 0 0
4 0.005795196915755308 0.11600289681548735 -0.003308905063010849 0 0 0
10 0.036276688751586156 0.1839843099023596 0.5571286704100674 0 0 0
6 -0.4536106500222903 -0.08090936818390754 -0.10173574395761674 0 0 0
7 0.04863592300529798 0.11794141317053772 -0.1681176969945929 0 0 0
5 0.4021785921220932 -0.04231244710777892 0.32926571045284714 0 0 0
8 0.4850003740965883 0.030659303211393013 0.10952219789929334 0 0 0
1 -0.08285972676817413 -0.07748553447626898 -0.48183332709359517 0 0 0
9 -0.016206525408714423 -0.1389440271986213 0.011565371876626282 0 0 0

Ellipsoids

2 0.5 1 0.5 0.9237852583388739 0.3829109511045357 0 0
3 1 0.5 0.5 0.9237852583388739 0 0.3829109511045357 0
4 0.5 0.5 1 0.9237852583388739 0 0 0.3829109511045357
10 0.5 1 0.5 0 0.7071067811865476 0 0.7071067811865476
6 0.5 0.5 1 1 0 0 0
7 0.5 1 0.5 0.9237852583388739 0.3829109511045357 0 0
5 0.5 1 0.5 0 0.7071067811865476 0 0.7071067811865476
8 1 0.5 0.5 0.9237852583388739 0 0.3829109511045357 0
1 0.5 1 0.5 0 0.7071067811865476 0 0.7071067811865476
9 0.5 0.5 1 0.9237852583388739 0 0 0.3829109511045357
