LAMMPS data file via write_data, version 7 Feb 2024, timestep = 25000, units = lj

10 atoms
1 atom types
10 ellipsoids

3 8 xlo xhi
-4 0 ylo yhi
-7 3 zlo zhi

Atoms # ellipsoid/kk

5 1 1 238.7324039657 6.119321761682738 -3.0333023654751896 -2.040712310297922 0 0 0
2 1 1 238.7324039657 3.657495172350945 -3.5862516166663556 -5.75628666315908 0 0 0
3 1 1 238.7324039657 3.395210650471606 -3.3351906050288855 -4.630567892101396 0 0 0
4 1 1 238.7324039657 4.700691703588864 -2.7783787580564465 -3.578047999938113 0 0 0
10 1 1 238.7324039657 7.119197552873127 -1.2435807391274225 -5.934436257757957 0 0 1
6 1 1 238.7324039657 5.025958454530219 -2.635578621680568 -1.4061263970056141 0 0 0
7 1 1 238.7324039657 6.363377210703426 -2.1473249138788453 -0.8328806805357049 0 0 0
8 1 1 238.7324039657 7.533034986963886 -2.1587532460153724 0.3132212009541376 0 0 0
9 1 1 238.7324039657 6.9208561613025905 -2.3562463241861438 1.5093786801429403 0 0 0
1 1 1 238.7324039657 3.484020005926335 -3.7951948043848556 2.458090481696871 0 0 -1

Velocities

5 0.4021785921220932 -0.04231244710777892 0.32926571045284714 0 0 0
2 -0.08320495639046202 -0.056889708240921225 -0.1345598147444346 0 0 0
3 -0.3420049163016832 -0.052046837892279194 -0.11792646278558393 0 0 0
4 0.005795196915755308 0.11600289681548735 -0.003308905063010849 0 0 0
10 0.036276688751586156 0.1839843099023596 0.5571286704100674 0 0 0
6 -0.4536106500222903 -0.08090936818390754 -0.10173574395761674 0 0 0
7 0.04863592300529798 0.11794141317053772 -0.1681176969945929 0 0 0
8 0.4850003740965883 0.030659303211393013 0.10952219789929334 0 0 0
9 -0.016206525408714423 -0.1389440271986213 0.011565371876626282 0 0 0
1 -0.08285972676817413 -0.07748553447626898 -0.48183332709359517 0 0 0

Ellipsoids

5 0.5 1 0.5 0 0.7071067811865476 0 0.7071067811865476
2 0.5 1 0.5 0.9237852583388739 0.3829109511045357 0 0
3 1 0.5 0.5 0.9237852583388739 0 0.3829109511045357 0
4 0.5 0.5 1 0.9237852583388739 0 0 0.3829109511045357
10 0.5 1 0.5 0 0.7071067811865476 0 0.7071067811865476
6 0.5 0.5 1 1 0 0 0
7 0.5 1 0.5 0.9237852583388739 0.3829109511045357 0 0
8 1 0.5 0.5 0.9237852583388739 0 0.3829109511045357 0
9 0.5 0.5 1 0.9237852583388739 0 0 0.3829109511045357
1 0.5 0.5 1 1 0 0 0
