LAMMPS data file via write_data, version 7 Feb 2024, timestep = 100000, units = lj

10 atoms
1 atom types
10 ellipsoids

3 8 xlo xhi
-4 0 ylo yhi
-7 3 zlo zhi

Atoms # ellipsoid/kk

2 1 1 238.7324039657 3.0334579994149244 -0.012924428481542627 -6.7654852737721844 0 -1 0
3 1 1 238.7324039657 5.8301737782223455 -3.725541889225174 -5.5150163629628395 -1 0 0
4 1 1 238.7324039657 4.744155680473125 -1.9083570319289345 -3.6028647878960727 0 0 0
7 1 1 238.7324039657 6.728146633237365 -1.262764315096563 -2.093763407996426 0 0 0
5 1 1 238.7324039657 4.1665341517243775 -2.6404101531154365 0.06740903523854375 1 0 0
1 1 1 238.7324039657 7.831699106017501 -1.0865718786146563 -0.7942879886465516 -1 -1 -1
6 1 1 238.7324039657 6.543082103927558 -2.8048974423729782 -1.9904102951823264 -1 0 0
9 1 1 238.7324039657 6.799307220723338 -3.398326528180688 1.5961189692110171 0 0 0
8 1 1 238.7324039657 6.170537792678469 -1.9288084719270415 1.1346376852011297 1 0 0
10 1 1 238.7324039657 7.472069193976065 -0.3011998555416 -1.9347054112006759 0 0 1

Velocities

2 -0.08320495639046202 -0.056889708240921225 -0.1345598147444346 0 0 0
3 -0.3420049163016832 -0.052046837892279194 -0.11792646278558393 0 0 0
4 0.005795196915755308 0.11600289681548735 -0.003308905063010849 0 0 0
7 0.04863592300529798 0.11794141317053772 -0.1681176969945929 0 0 0
5 0.41490349858172376 0.23827109629575785 0.18740921480317738 0 0 0
1 -0.0955846332278025 -0.3580690778798039 -0.33997683144392454 0 0 0
6 -0.5228493468427692 0.28436042384498145 0.04566845885170409 0 0 0
9 -0.016206525408714423 -0.1389440271986213 0.011565371876626282 0 0 0
8 0.4850003740965883 0.030659303211393013 0.10952219789929334 0 0 0
10 0.10551538557205982 -0.18128548212652976 0.4097244676007491 0 0 0

Ellipsoids

2 0.5 1 0.5 0.9237852583388739 0.3829109511045357 0 0
3 1 0.5 0.5 0.9237852583388739 0 0.3829109511045357 0
4 0.5 0.5 1 0.9237852583388739 0 0 0.3829109511045357
7 0.5 1 0.5 0.9237852583388739 0.3829109511045357 0 0
5 0.5 1 0.5 0 0.7071067811865476 0 0.7071067811865476
1 0.5 1 0.5 0 0.7071067811865476 0 0.7071067811865476
6 0.5 0.5 1 1 0 0 0
9 0.5 1 0.5 0.9237852583388739 0.3829109511045357 0 0
8 1 0.5 0.5 0.9237852583388739 0 0.3829109511045357 0
10 0.5 1 0.5 0 0.7071067811865476 0 0.7071067811865476
