LAMMPS data file via write_data, version 7 Feb 2024, timestep = 12000, units = lj

10 atoms
1 atom types
10 ellipsoids

3 8 xlo xhi
-4 0 ylo yhi
-7 3 zlo zhi

Atoms # ellipsoid/kk

1 1 1 238.7324039657 3.5917376507257783 -3.6944636095639534 -6.91552619307955 0 0 0
2 1 1 238.7324039657 3.7656616156598552 -3.512294995951723 -5.581358903986142 0 0 0
3 1 1 238.7324039657 3.8398170416651976 -3.2675297157681955 -4.477263490485413 0 0 0
4 1 1 238.7324039657 4.693157947595592 -2.9291825239188527 -3.5737464233587333 0 0 0
5 1 1 238.7324039657 5.596489591929053 -2.9782961842373075 -2.468757733886241 0 0 0
10 1 1 238.7324039657 7.072037857491411 -1.4827603420009852 -6.6587035292916195 0 0 1
6 1 1 238.7324039657 5.567599797844951 -2.546969839495155 -1.312601857840874 0 0 0
7 1 1 238.7324039657 6.321653982860874 -2.287470620901511 -0.6087961415056987 0 0 0
8 1 1 238.7324039657 6.9290835302901685 -2.195215073835443 0.20404273872892503 0 0 0
9 1 1 238.7324039657 6.941924644336328 -2.1756190888270894 1.4943436967044736 0 0 0

Velocities

1 -0.08285972676817413 -0.07748553447626898 -0.48183332709359517 0 0 0
2 -0.08320495639046202 -0.056889708240921225 -0.1345598147444346 0 0 0
3 -0.3420049163016832 -0.052046837892279194 -0.11792646278558393 0 0 0
4 0.005795196915755308 0.11600289681548735 -0.003308905063010849 0 0 0
5 0.4021785921220932 -0.04231244710777892 0.32926571045284714 0 0 0
10 0.036276688751586156 0.1839843099023596 0.5571286704100674 0 0 0
6 -0.16387703259476477 0.018761450019359253 0.14202398237101377 0 0 0
7 0.018882543856442873 0.05357606538316054 -0.07987022736543879 0 0 0
8 0.2250201358179188 -0.00464616720449677 -0.22248499805849165 0 0 0
9 -0.016206525408714423 -0.1389440271986213 0.011565371876626282 0 0 0

Ellipsoids

1 0.5 0.5 1 1 0 0 0
2 0.5 1 0.5 0.9237852583388739 0.3829109511045357 0 0
3 1 0.5 0.5 0.9237852583388739 0 0.3829109511045357 0
4 0.5 0.5 1 0.9237852583388739 0 0 0.3829109511045357
5 0.5 1 0.5 0 0.7071067811865476 0 0.7071067811865476
10 0.5 1 0.5 0 0.7071067811865476 0 0.7071067811865476
6 0.5 0.5 1 1 0 0 0
7 0.5 1 0.5 0.9237852583388739 0.3829109511045357 0 0
8 1 0.5 0.5 0.9237852583388739 0 0.3829109511045357 0
9 0.5 0.5 1 0.9237852583388739 0 0 0.3829109511045357
