LAMMPS data file via write_data, version 7 Feb 2024, timestep = 13000, units = lj

10 atoms
1 atom types
10 ellipsoids

3 8 xlo xhi
-4 0 ylo yhi
-7 3 zlo zhi

Atoms # ellipsoid/kk

1 1 1 238.7324039657 3.583451678048898 -3.702212163011715 -6.963709525789056 0 0 0
2 1 1 238.7324039657 3.7573411200207083 -3.5179839667759256 -5.594814885460983 0 0 0
3 1 1 238.7324039657 3.8056165500349213 -3.2727343995574794 -4.4890561367635655 0 0 0
4 1 1 238.7324039657 4.693737467287382 -2.917582234237129 -3.5740773138648394 0 0 0
5 1 1 238.7324039657 5.636707451140875 -2.982527428947914 -2.435831162840986 0 0 0
10 1 1 238.7324039657 7.075665526366928 -1.4643619110107111 -6.602990662250528 0 0 1
6 1 1 238.7324039657 5.546630601710542 -2.546666205827086 -1.3025937375219983 0 0 0
7 1 1 238.7324039657 6.320720410214153 -2.281628809646486 -0.6223381453842851 0 0 0
8 1 1 238.7324039657 6.958988863779242 -2.1945913839387217 0.1915434979833407 0 0 0
9 1 1 238.7324039657 6.940303991795271 -2.1895134915470167 1.495500233892048 0 0 0

Velocities

1 -0.08285972676817413 -0.07748553447626898 -0.48183332709359517 0 0 0
2 -0.08320495639046202 -0.056889708240921225 -0.1345598147444346 0 0 0
3 -0.3420049163016832 -0.052046837892279194 -0.11792646278558393 0 0 0
4 0.005795196915755308 0.11600289681548735 -0.003308905063010849 0 0 0
5 0.4021785921220932 -0.04231244710777892 0.32926571045284714 0 0 0
10 0.036276688751586156 0.1839843099023596 0.5571286704100674 0 0 0
6 -0.25582360019643674 -0.012770876047503892 0.05868704574506128 0 0 0
7 -0.03100795957074673 0.06460161661359728 -0.18191632827979454 0 0 0
8 0.3668572068467813 0.01586060763192974 -0.037101960518183534 0 0 0
9 -0.016206525408714423 -0.1389440271986213 0.011565371876626282 0 0 0

Ellipsoids

1 0.5 0.5 1 1 0 0 0
2 0.5 1 0.5 0.9237852583388739 0.3829109511045357 0 0
3 1 0.5 0.5 0.9237852583388739 0 0.3829109511045357 0
4 0.5 0.5 1 0.9237852583388739 0 0 0.3829109511045357
5 0.5 1 0.5 0 0.7071067811865476 0 0.7071067811865476
10 0.5 1 0.5 0 0.7071067811865476 0 0.7071067811865476
6 0.5 0.5 1 1 0 0 0
7 0.5 1 0.5 0.9237852583388739 0.3829109511045357 0 0
8 1 0.5 0.5 0.9237852583388739 0 0.3829109511045357 0
9 0.5 0.5 1 0.9237852583388739 0 0 0.3829109511045357
