LAMMPS data file via write_data, version 7 Feb 2024, timestep = 83000, units = lj

10 atoms
1 atom types
10 ellipsoids

3 8 xlo xhi
-4 0 ylo yhi
-7 3 zlo zhi

Atoms # ellipsoid/kk

2 1 1 238.7324039657 3.1749064252804224 -3.9162119244701006 -6.536733588699881 0 0 0
3 1 1 238.7324039657 6.411582135929493 -3.6370622648073487 -5.314541376234246 -1 0 0
4 1 1 238.7324039657 4.7343038457126925 -2.1055619565164805 -3.5972396492922685 0 0 0
10 1 1 238.7324039657 7.329602347653088 -0.1764717416923928 -2.7030899693900907 0 0 1
5 1 1 238.7324039657 3.4611982041382277 -3.0454710168217223 -0.2511866299268946 1 0 0
1 1 1 238.7324039657 7.994192982502094 -0.47785444621985435 -0.21632737519205367 -1 -1 -1
6 1 1 238.7324039657 7.395016684402837 -3.1048529571423016 -1.9961937119626465 -1 0 0
7 1 1 238.7324039657 6.6454655641296725 -1.4632647174878424 -1.8079633231053294 0 0 0
8 1 1 238.7324039657 5.346037156720288 -1.9809292873870632 0.9484499487715969 1 0 0
9 1 1 238.7324039657 6.826858313921302 -3.1621216819419247 1.576457837022253 0 0 0

Velocities

2 -0.08320495639046202 -0.056889708240921225 -0.1345598147444346 0 0 0
3 -0.3420049163016832 -0.052046837892279194 -0.11792646278558393 0 0 0
4 0.005795196915755308 0.11600289681548735 -0.003308905063010849 0 0 0
10 0.036276688751586156 0.1839843099023596 0.5571286704100674 0 0 0
5 0.41490349858172376 0.23827109629575785 0.18740921480317738 0 0 0
1 -0.0955846332278025 -0.3580690778798039 -0.33997683144392454 0 0 0
6 -0.4536106500222903 -0.08090936818390754 -0.10173574395761674 0 0 0
7 0.04863592300529798 0.11794141317053772 -0.1681176969945929 0 0 0
8 0.4850003740965883 0.030659303211393013 0.10952219789929334 0 0 0
9 -0.016206525408714423 -0.1389440271986213 0.011565371876626282 0 0 0

Ellipsoids

2 0.5 1 0.5 0.9237852583388739 0.3829109511045357 0 0
3 1 0.5 0.5 0.9237852583388739 0 0.3829109511045357 0
4 0.5 0.5 1 0.9237852583388739 0 0 0.3829109511045357
10 0.5 1 0.5 0 0.7071067811865476 0 0.7071067811865476
5 0.5 1 0.5 0 0.7071067811865476 0 0.7071067811865476
1 0.5 0.5 1 1 0 0 0
6 0.5 0.5 1 1 0 0 0
7 0.5 1 0.5 0.9237852583388739 0.3829109511045357 0 0
8 1 0.5 0.5 0.9237852583388739 0 0.3829109511045357 0
9 0.5 0.5 1 0.9237852583388739 0 0 0.3829109511045357
