ITEM: TIMESTEP
0
ITEM: NUMBER OF ATOMS
10
ITEM: BOX BOUNDS pp pp pp
3.0000000000000000e+00 8.0000000000000000e+00
-4.0000000000000000e+00 0.0000000000000000e+00
-7.0000000000000000e+00 3.0000000000000000e+00
ITEM: ATOMS id type x y z quatw quati quatj quatk shapex shapey shapez
1 1 3.67207 -3.61948 -6.45052 1 0 0 0 0.5 0.5 1
2 1 3.85923 -3.44717 -5.40351 0.923785 0.382911 0 0 0.5 1 0.5
3 1 4.12598 -3.23867 -4.44562 0.923785 0 0.382911 0 1 0.5 0.5
4 1 4.67486 -3.03396 -3.59572 0.923785 0 0 0.382911 0.5 0.5 1
5 1 5.26597 -2.91726 -2.66757 0 0.707107 0 0.707107 0.5 1 0.5
6 1 5.49911 -2.65673 -1.72192 0.707107 0 0 0.707107 0.5 0.5 1
7 1 6.30317 -2.2988 -0.617945 0.707107 0 0.707107 0 0.5 1 0.5
8 1 6.91668 -2.17204 0.502661 0.57735 0.57735 0.57735 0 1 0.5 0.5
9 1 6.97125 -1.99394 1.79339 0.57735 0 0.57735 0.57735 0.5 0.5 1
10 1 7.03083 -1.69177 2.70839 0 0.57735 0.57735 0.57735 0.5 1 0.5
ITEM: TIMESTEP
100
ITEM: NUMBER OF ATOMS
10
ITEM: BOX BOUNDS pp pp pp
3.0000000000000000e+00 8.0000000000000000e+00
-4.0000000000000000e+00 0.0000000000000000e+00
-7.0000000000000000e+00 3.0000000000000000e+00
ITEM: ATOMS id type x y z quatw quati quatj quatk shapex shapey shapez
1 1 3.67118 -3.6203 -6.44552 1 0 0 0 0.5 0.5 1
2 1 3.85668 -3.44904 -5.4009 0.923785 0.382911 0 0 0.5 1 0.5
3 1 4.1239 -3.23803 -4.43177 0.923785 0 0.382911 0 1 0.5 0.5
4 1 4.67863 -3.03224 -3.57994 0.923785 0 0 0.382911 0.5 0.5 1
5 1 5.26443 -2.92061 -2.66821 0 0.707107 0 0.707107 0.5 1 0.5
6 1 5.50241 -2.65304 -1.69853 0.707107 0 0 0.707107 0.5 0.5 1
7 1 6.30317 -2.2988 -0.607945 0.707107 0 0.707107 0 0.5 1 0.5
8 1 6.91668 -2.17204 0.512661 0.57735 0.57735 0.57735 0 1 0.5 0.5
9 1 6.96966 -2.00201 1.77894 0.57735 0 0.57735 0.57735 0.5 0.5 1
10 1 7.03242 -1.68369 2.74284 0 0.57735 0.57735 0.57735 0.5 1 0.5
ITEM: TIMESTEP
200
ITEM: NUMBER OF ATOMS
10
ITEM: BOX BOUNDS pp pp pp
3.0000000000000000e+00 8.0000000000000000e+00
-4.0000000000000000e+00 0.0000000000000000e+00
-7.0000000000000000e+00 3.0000000000000000e+00
ITEM: ATOMS id type x y z quatw quati quatj quatk shapex shapey shapez
1 1 3.66844 -3.62282 -6.45092 1 0 0 0 0.5 0.5 1
2 1 3.85013 -3.45382 -5.40906 0.923785 0.382911 0 0 0.5 1 0.5
3 1 4.11735 -3.2366 -4.41258 0.923785 0 0.382911 0 1 0.5 0.5
4 1 4.68798 -3.0276 -3.55567 0.923785 0 0 0.382911 0.5 0.5 1
5 1 5.26291 -2.92836 -2.68068 0 0.707107 0 0.707107 0.5 1 0.5
6 1 5.51042 -2.64406 -1.65595 0.707107 0 0 0.707107 0.5 0.5 1
7 1 6.30317 -2.2988 -0.597945 0.707107 0 0.707107 0 0.5 1 0.5
8 1 6.91668 -2.17204 0.522661 0.57735 0.57735 0.57735 0 1 0.5 0.5
9 1 6.96631 -2.01896 1.73761 0.57735 0 0.57735 0.57735 0.5 0.5 1
10 1 7.03576 -1.66674 2.80417 0 0.57735 0.57735 0.57735 0.5 1 0.5
ITEM: TIMESTEP
300
ITEM: NUMBER OF ATOMS
10
ITEM: BOX BOUNDS pp pp pp
3.0000000000000000e+00 8.0000000000000000e+00
-4.0000000000000000e+00 0.0000000000000000e+00
-7.0000000000000000e+00 3.0000000000000000e+00
ITEM: ATOMS id type x y z quatw quati quatj quatk shapex shapey shapez
1 1 3.6638 -3.62712 -6.46724 1 0 0 0 0.5 0.5 1
2 1 3.84168 -3.45993 -5.42051 0.923785 0.382911 0 0 0.5 1 0.5
3 1 4.10603 -3.23523 -4.39205 0.923785 0 0.382911 0 1 0.5 0.5
4 1 4.69729 -3.02127 -3.53159 0.923785 0 0 0.382911 0.5 0.5 1
5 1 5.26815 -2.93676 -2.68773 0 0.707107 0 0.707107 0.5 1 0.5
6 1 5.52028 -2.63296 -1.60573 0.707107 0 0 0.707107 0.5 0.5 1
7 1 6.30317 -2.2988 -0.587945 0.707107 0 0.707107 0 0.5 1 0.5
8 1 6.91668 -2.17204 0.532661 0.57735 0.57735 0.57735 0 1 0.5 0.5
9 1 6.96269 -2.03736 1.6919 0.57735 0 0.57735 0.57735 0.5 0.5 1
10 1 7.03939 -1.64835 2.86988 0 0.57735 0.57735 0.57735 0.5 1 0.5
ITEM: TIMESTEP
400
ITEM: NUMBER OF ATOMS
10
ITEM: BOX BOUNDS pp pp pp
3.0000000000000000e+00 8.0000000000000000e+00
-4.0000000000000000e+00 0.0000000000000000e+00
-7.0000000000000000e+00 3.0000000000000000e+00
ITEM: ATOMS id type x y z quatw quati quatj quatk shapex shapey shapez
1 1 3.65742 -3.63305 -6.49379 1 0 0 0 0.5 0.5 1
2 1 3.83272 -3.4663 -5.43041 0.923785 0.382911 0 0 0.5 1 0.5
3 1 4.09001 -3.23447 -4.37297 0.923785 0 0.382911 0 1 0.5 0.5
4 1 4.7004 -3.01436 -3.5168 0.923785 0 0 0.382911 0.5 0.5 1
5 1 5.28638 -2.9434 -2.676 0 0.707107 0 0.707107 0.5 1 0.5
6 1 5.53029 -2.62168 -1.55489 0.707107 0 0 0.707107 0.5 0.5 1
7 1 6.30317 -2.2988 -0.577945 0.707107 0 0.707107 0 0.5 1 0.5
8 1 6.91668 -2.17205 0.542555 0.57735 0.57735 0.57735 0 1 0.5 0.5
9 1 6.95906 -2.05574 1.6463 0.57735 0 0.57735 0.57735 0.5 0.5 1
10 1 7.04302 -1.62995 2.93559 0 0.57735 0.57735 0.57735 0.5 1 0.5
ITEM: TIMESTEP
500
ITEM: NUMBER OF ATOMS
10
ITEM: BOX BOUNDS pp pp pp
3.0000000000000000e+00 8.0000000000000000e+00
-4.0000000000000000e+00 0.0000000000000000e+00
-7.0000000000000000e+00 3.0000000000000000e+00
ITEM: ATOMS id type x y z quatw quati quatj quatk shapex shapey shapez
1 1 3.64973 -3.64023 -6.52829 1 0 0 0 0.5 0.5 1
2 1 3.82392 -3.47246 -5.43711 0.923785 0.382911 0 0 0.5 1 0.5
3 1 4.06899 -3.23489 -4.35777 0.923785 0 0.382911 0 1 0.5 0.5
4 1 4.69717 -3.00676 -3.51135 0.923785 0 0 0.382911 0.5 0.5 1
5 1 5.31712 -2.94852 -2.6463 0 0.707107 0 0.707107 0.5 1 0.5
6 1 5.5403 -2.61041 -1.50405 0.707107 0 0 0.707107 0.5 0.5 1
7 1 6.30317 -2.2988 -0.567945 0.707107 0 0.707107 0 0.5 1 0.5
8 1 6.91649 -2.17256 0.547537 0.57735 0.57735 0.57735 0 1 0.5 0.5
9 1 6.95563 -2.07363 1.6056 0.57735 0 0.57735 0.57735 0.5 0.5 1
10 1 7.04664 -1.61155 3.0013 0 0.57735 0.57735 0.57735 0.5 1 0.5
ITEM: TIMESTEP
600
ITEM: NUMBER OF ATOMS
10
ITEM: BOX BOUNDS pp pp pp
3.0000000000000000e+00 8.0000000000000000e+00
-4.0000000000000000e+00 0.0000000000000000e+00
-7.0000000000000000e+00 3.0000000000000000e+00
ITEM: ATOMS id type x y z quatw quati quatj quatk shapex shapey shapez
1 1 3.64145 -3.64797 -6.56643 1 0 0 0 0.5 0.5 1
2 1 3.81559 -3.47815 -5.44059 0.923785 0.382911 0 0 0.5 1 0.5
3 1 4.04229 -3.23732 -4.34996 0.923785 0 0.382911 0 1 0.5 0.5
4 1 4.69239 -2.99777 -3.50835 0.923785 0 0 0.382911 0.5 0.5 1
5 1 5.35519 -2.95291 -2.60633 0 0.707107 0 0.707107 0.5 1 0.5
6 1 5.55032 -2.59913 -1.45321 0.707107 0 0 0.707107 0.5 0.5 1
7 1 6.30317 -2.2988 -0.557945 0.707107 0 0.707107 0 0.5 1 0.5
8 1 6.91583 -2.17424 0.53987 0.57735 0.57735 0.57735 0 1 0.5 0.5
9 1 6.95266 -2.09035 1.57756 0.57735 0 0.57735 0.57735 0.5 0.5 1
10 1 7.05027 -1.59315 3.06701 0 0.57735 0.57735 0.57735 0.5 1 0.5
ITEM: TIMESTEP
700
ITEM: NUMBER OF ATOMS
10
ITEM: BOX BOUNDS pp pp pp
3.0000000000000000e+00 8.0000000000000000e+00
-4.0000000000000000e+00 0.0000000000000000e+00
-7.0000000000000000e+00 3.0000000000000000e+00
ITEM: ATOMS id type x y z quatw quati quatj quatk shapex shapey shapez
1 1 3.63317 -3.65572 -6.60462 1 0 0 0 0.5 0.5 1
2 1 3.80728 -3.48384 -5.44402 0.923785 0.382911 0 0 0.5 1 0.5
3 1 4.01073 -3.24155 -4.34845 0.923785 0 0.382911 0 1 0.5 0.5
4 1 4.69034 -2.98715 -3.502 0.923785 0 0 0.382911 0.5 0.5 1
5 1 5.39539 -2.95715 -2.56342 0 0.707107 0 0.707107 0.5 1 0.5
6 1 5.56033 -2.58786 -1.40236 0.707107 0 0 0.707107 0.5 0.5 1
7 1 6.30317 -2.2988 -0.547945 0.707107 0 0.707107 0 0.5 1 0.5
8 1 6.91456 -2.17731 0.514956 0.57735 0.57735 0.57735 0 1 0.5 0.5
9 1 6.9503 -2.10567 1.56676 0.57735 0 0.57735 0.57735 0.5 0.5 1
10 1 7.0539 -1.57476 3.13272 0 0.57735 0.57735 0.57735 0.5 1 0.5
ITEM: TIMESTEP
800
ITEM: NUMBER OF ATOMS
10
ITEM: BOX BOUNDS pp pp pp
3.0000000000000000e+00 8.0000000000000000e+00
-4.0000000000000000e+00 0.0000000000000000e+00
-7.0000000000000000e+00 3.0000000000000000e+00
ITEM: ATOMS id type x y z quatw quati quatj quatk shapex shapey shapez
1 1 3.62488 -3.66347 -6.64281 1 0 0 0 0.5 0.5 1
2 1 3.79896 -3.48952 -5.44745 0.923785 0.382911 0 0 0.5 1 0.5
3 1 3.9766 -3.24673 -4.35017 0.923785 0 0.382911 0 1 0.5 0.5
4 1 4.69085 -2.97558 -3.49241 0.923785 0 0 0.382911 0.5 0.5 1
5 1 5.4356 -2.96138 -2.52051 0 0.707107 0 0.707107 0.5 1 0.5
6 1 5.57034 -2.57658 -1.35152 0.707107 0 0 0.707107 0.5 0.5 1
7 1 6.30317 -2.2988 -0.537945 0.707107 0 0.707107 0 0.5 1 0.5
8 1 6.9128 -2.18137 0.475697 0.57735 0.57735 0.57735 0 1 0.5 0.5
9 1 6.94843 -2.12001 1.57031 0.57735 0 0.57735 0.57735 0.5 0.5 1
10 1 7.05753 -1.55636 3.19843 0 0.57735 0.57735 0.57735 0.5 1 0.5
ITEM: TIMESTEP
900
ITEM: NUMBER OF ATOMS
10
ITEM: BOX BOUNDS pp pp pp
3.0000000000000000e+00 8.0000000000000000e+00
-4.0000000000000000e+00 0.0000000000000000e+00
-7.0000000000000000e+00 3.0000000000000000e+00
ITEM: ATOMS id type x y z quatw quati quatj quatk shapex shapey shapez
1 1 3.61659 -3.67122 -6.681 1 0 0 0 0.5 0.5 1
2 1 3.79065 -3.4952 -5.45087 0.923785 0.382911 0 0 0.5 1 0.5
3 1 3.94239 -3.25194 -4.35199 0.923785 0 0.382911 0 1 0.5 0.5
4 1 4.69144 -2.96398 -3.48273 0.923785 0 0 0.382911 0.5 0.5 1
5 1 5.47581 -2.96562 -2.4776 0 0.707107 0 0.707107 0.5 1 0.5
6 1 5.57912 -2.56576 -1.30201 0.707107 0 0 0.707107 0.5 0.5 1
7 1 6.3044 -2.29834 -0.526609 0.707107 0 0.707107 0 0.5 1 0.5
8 1 6.91082 -2.18585 0.429406 0.57735 0.57735 0.57735 0 1 0.5 0.5
9 1 6.94679 -2.13393 1.58089 0.57735 0 0.57735 0.57735 0.5 0.5 1
10 1 7.06115 -1.53796 3.26414 0 0.57735 0.57735 0.57735 0.5 1 0.5
ITEM: TIMESTEP
1000
ITEM: NUMBER OF ATOMS
10
ITEM: BOX BOUNDS pp pp pp
3.0000000000000000e+00 8.0000000000000000e+00
-4.0000000000000000e+00 0.0000000000000000e+00
-7.0000000000000000e+00 3.0000000000000000e+00
ITEM: ATOMS id type x y z quatw quati quatj quatk shapex shapey shapez
1 1 3.6083 -3.67897 -6.71919 1 0 0 0 0.5 0.5 1
2 1 3.78233 -3.50089 -5.4543 0.923785 0.382911 0 0 0.5 1 0.5
3 1 3.90818 -3.25715 -4.35381 0.923785 0 0.382911 0 1 0.5 0.5
4 1 4.69203 -2.95238 -3.47304 0.923785 0 0 0.382911 0.5 0.5 1
5 1 5.51602 -2.96985 -2.43469 0 0.707107 0 0.707107 0.5 1 0.5
6 1 5.58293 -2.55678 -1.25781 0.707107 0 0 0.707107 0.5 0.5 1
7 1 6.30974 -2.2962 -0.511285 0.707107 0 0.707107 0 0.5 1 0.5
8 1 6.90967 -2.19019 0.38384 0.57735 0.57735 0.57735 0 1 0.5 0.5
9 1 6.94517 -2.14783 1.59207 0.57735 0 0.57735 0.57735 0.5 0.5 1
10 1 7.06478 -1.51956 3.32985 0 0.57735 0.57735 0.57735 0.5 1 0.5
ITEM: TIMESTEP
1100
ITEM: NUMBER OF ATOMS
10
ITEM: BOX BOUNDS pp pp pp
3.0000000000000000e+00 8.0000000000000000e+00
-4.0000000000000000e+00 0.0000000000000000e+00
-7.0000000000000000e+00 3.0000000000000000e+00
ITEM: ATOMS id type x y z quatw quati quatj quatk shapex shapey shapez
1 1 3.60002 -3.68672 -6.75738 1 0 0 0 0.5 0.5 1
2 1 3.77402 -3.50657 -5.45773 0.923785 0.382911 0 0 0.5 1 0.5
3 1 3.87397 -3.26236 -4.35563 0.923785 0 0.382911 0 1 0.5 0.5
4 1 4.69262 -2.94077 -3.46335 0.923785 0 0 0.382911 0.5 0.5 1
5 1 5.55623 -2.97408 -2.39178 0 0.707107 0 0.707107 0.5 1 0.5
6 1 5.57951 -2.55038 -1.22102 0.707107 0 0 0.707107 0.5 0.5 1
7 1 6.31698 -2.29241 -0.49645 0.707107 0 0.707107 0 0.5 1 0.5
8 1 6.91386 -2.19361 0.346167 0.57735 0.57735 0.57735 0 1 0.5 0.5
9 1 6.94355 -2.16172 1.60324 0.57735 0 0.57735 0.57735 0.5 0.5 1
10 1 7.06841 -1.50117 3.39556 0 0.57735 0.57735 0.57735 0.5 1 0.5
ITEM: TIMESTEP
1200
ITEM: NUMBER OF ATOMS
10
ITEM: BOX BOUNDS pp pp pp
3.0000000000000000e+00 8.0000000000000000e+00
-4.0000000000000000e+00 0.0000000000000000e+00
-7.0000000000000000e+00 3.0000000000000000e+00
ITEM: ATOMS id type x y z quatw quati quatj quatk shapex shapey shapez
1 1 3.59173 -3.69447 -6.79557 1 0 0 0 0.5 0.5 1
2 1 3.7657 -3.51225 -5.46116 0.923785 0.382911 0 0 0.5 1 0.5
3 1 3.83976 -3.26757 -4.35745 0.923785 0 0.382911 0 1 0.5 0.5
4 1 4.69322 -2.92917 -3.45367 0.923785 0 0 0.382911 0.5 0.5 1
5 1 5.59644 -2.97832 -2.34887 0 0.707107 0 0.707107 0.5 1 0.5
6 1 5.56758 -2.54697 -1.19258 0.707107 0 0 0.707107 0.5 0.5 1
7 1 6.32167 -2.28746 -0.488792 0.707107 0 0.707107 0 0.5 1 0.5
8 1 6.9291 -2.19521 0.324023 0.57735 0.57735 0.57735 0 1 0.5 0.5
9 1 6.94193 -2.17561 1.61442 0.57735 0 0.57735 0.57735 0.5 0.5 1
10 1 7.07204 -1.48277 3.46127 0 0.57735 0.57735 0.57735 0.5 1 0.5
ITEM: TIMESTEP
1300
ITEM: NUMBER OF ATOMS
10
ITEM: BOX BOUNDS pp pp pp
3.0000000000000000e+00 8.0000000000000000e+00
-4.0000000000000000e+00 0.0000000000000000e+00
-7.0000000000000000e+00 3.0000000000000000e+00
ITEM: ATOMS id type x y z quatw quati quatj quatk shapex shapey shapez
1 1 3.58344 -3.70222 -6.83376 1 0 0 0 0.5 0.5 1
2 1 3.75739 -3.51794 -5.46459 0.923785 0.382911 0 0 0.5 1 0.5
3 1 3.80554 -3.27278 -4.35927 0.923785 0 0.382911 0 1 0.5 0.5
4 1 4.69381 -2.91757 -3.44398 0.923785 0 0 0.382911 0.5 0.5 1
5 1 5.63665 -2.98255 -2.30596 0 0.707107 0 0.707107 0.5 1 0.5
6 1 5.5466 -2.54666 -1.17257 0.707107 0 0 0.707107 0.5 0.5 1
7 1 6.32073 -2.28162 -0.492349 0.707107 0 0.707107 0 0.5 1 0.5
8 1 6.95903 -2.19459 0.321529 0.57735 0.57735 0.57735 0 1 0.5 0.5
9 1 6.94031 -2.1895 1.62559 0.57735 0 0.57735 0.57735 0.5 0.5 1
10 1 7.07566 -1.46437 3.52698 0 0.57735 0.57735 0.57735 0.5 1 0.5
ITEM: TIMESTEP
1400
ITEM: NUMBER OF ATOMS
10
ITEM: BOX BOUNDS pp pp pp
3.0000000000000000e+00 8.0000000000000000e+00
-4.0000000000000000e+00 0.0000000000000000e+00
-7.0000000000000000e+00 3.0000000000000000e+00
ITEM: ATOMS id type x y z quatw quati quatj quatk shapex shapey shapez
1 1 3.57516 -3.70997 -6.87195 1 0 0 0 0.5 0.5 1
2 1 3.74908 -3.52362 -5.46802 0.923785 0.382911 0 0 0.5 1 0.5
3 1 3.77133 -3.278 -4.36109 0.923785 0 0.382911 0 1 0.5 0.5
4 1 4.6944 -2.90596 -3.4343 0.923785 0 0 0.382911 0.5 0.5 1
5 1 5.67686 -2.98678 -2.26304 0 0.707107 0 0.707107 0.5 1 0.5
6 1 5.51649 -2.54949 -1.16059 0.707107 0 0 0.707107 0.5 0.5 1
7 1 6.31729 -2.27425 -0.502775 0.707107 0 0.707107 0 0.5 1 0.5
8 1 7.00058 -2.19236 0.333938 0.57735 0.57735 0.57735 0 1 0.5 0.5
9 1 6.93869 -2.2034 1.63677 0.57735 0 0.57735 0.57735 0.5 0.5 1
10 1 7.07929 -1.44597 3.59269 0 0.57735 0.57735 0.57735 0.5 1 0.5
ITEM: TIMESTEP
1500
ITEM: NUMBER OF ATOMS
10
ITEM: BOX BOUNDS pp pp pp
3.0000000000000000e+00 8.0000000000000000e+00
-4.0000000000000000e+00 0.0000000000000000e+00
-7.0000000000000000e+00 3.0000000000000000e+00
ITEM: ATOMS id type x y z quatw quati quatj quatk shapex shapey shapez
1 1 3.56687 -3.71772 -6.91014 1 0 0 0 0.5 0.5 1
2 1 3.74076 -3.52931 -5.47145 0.923785 0.382911 0 0 0.5 1 0.5
3 1 3.73712 -3.28321 -4.36291 0.923785 0 0.382911 0 1 0.5 0.5
4 1 4.69499 -2.89436 -3.42461 0.923785 0 0 0.382911 0.5 0.5 1
5 1 5.71707 -2.99102 -2.22013 0 0.707107 0 0.707107 0.5 1 0.5
6 1 5.4782 -2.55513 -1.15535 0.707107 0 0 0.707107 0.5 0.5 1
7 1 6.31606 -2.26479 -0.513814 0.707107 0 0.707107 0 0.5 1 0.5
8 1 7.0481 -2.1894 0.353687 0.57735 0.57735 0.57735 0 1 0.5 0.5
9 1 6.93707 -2.21729 1.64795 0.57735 0 0.57735 0.57735 0.5 0.5 1
10 1 7.08292 -1.42758 3.6584 0 0.57735 0.57735 0.57735 0.5 1 0.5
ITEM: TIMESTEP
1600
ITEM: NUMBER OF ATOMS
10
ITEM: BOX BOUNDS pp pp pp
3.0000000000000000e+00 8.0000000000000000e+00
-4.0000000000000000e+00 0.0000000000000000e+00
-7.0000000000000000e+00 3.0000000000000000e+00
ITEM: ATOMS id type x y z quatw quati quatj quatk shapex shapey shapez
1 1 3.55858 -3.72547 -6.94833 1 0 0 0 0.5 0.5 1
2 1 3.73245 -3.53499 -5.47488 0.923785 0.382911 0 0 0.5 1 0.5
3 1 3.70291 -3.28842 -4.36473 0.923785 0 0.382911 0 1 0.5 0.5
4 1 4.69558 -2.88276 -3.41492 0.923785 0 0 0.382911 0.5 0.5 1
5 1 5.75728 -2.99525 -2.17722 0 0.707107 0 0.707107 0.5 1 0.5
6 1 5.43416 -2.56276 -1.15454 0.707107 0 0 0.707107 0.5 0.5 1
7 1 6.31959 -2.25346 -0.521626 0.707107 0 0.707107 0 0.5 1 0.5
8 1 7.09661 -2.18634 0.374644 0.57735 0.57735 0.57735 0 1 0.5 0.5
9 1 6.93545 -2.23118 1.65912 0.57735 0 0.57735 0.57735 0.5 0.5 1
10 1 7.08655 -1.40918 3.72411 0 0.57735 0.57735 0.57735 0.5 1 0.5
ITEM: TIMESTEP
1700
ITEM: NUMBER OF ATOMS
10
ITEM: BOX BOUNDS pp pp pp
3.0000000000000000e+00 8.0000000000000000e+00
-4.0000000000000000e+00 0.0000000000000000e+00
-7.0000000000000000e+00 3.0000000000000000e+00
ITEM: ATOMS id type x y z quatw quati quatj quatk shapex shapey shapez
1 1 3.5503 -3.73322 -6.98652 1 0 0 0 0.5 0.5 1
2 1 3.72413 -3.54067 -5.47831 0.923785 0.382911 0 0 0.5 1 0.5
3 1 3.6687 -3.29363 -4.36655 0.923785 0 0.382911 0 1 0.5 0.5
4 1 4.69618 -2.87116 -3.40524 0.923785 0 0 0.382911 0.5 0.5 1
5 1 5.79749 -2.99948 -2.13431 0 0.707107 0 0.707107 0.5 1 0.5
6 1 5.38881 -2.57084 -1.1547 0.707107 0 0 0.707107 0.5 0.5 1
7 1 6.32443 -2.24167 -0.528465 0.707107 0 0.707107 0 0.5 1 0.5
8 1 7.14513 -2.18327 0.395602 0.57735 0.57735 0.57735 0 1 0.5 0.5
9 1 6.93383 -2.24508 1.6703 0.57735 0 0.57735 0.57735 0.5 0.5 1
10 1 7.09017 -1.39078 3.78983 0 0.57735 0.57735 0.57735 0.5 1 0.5
ITEM: TIMESTEP
1800
ITEM: NUMBER OF ATOMS
10
ITEM: BOX BOUNDS pp pp pp
3.0000000000000000e+00 8.0000000000000000e+00
-4.0000000000000000e+00 0.0000000000000000e+00
-7.0000000000000000e+00 3.0000000000000000e+00
ITEM: ATOMS id type x y z quatw quati quatj quatk shapex shapey shapez
1 1 3.54201 -3.74097 -7.02471 1 0 0 0 0.5 0.5 1
2 1 3.71582 -3.54636 -5.48174 0.923785 0.382911 0 0 0.5 1 0.5
3 1 3.63449 -3.29884 -4.36837 0.923785 0 0.382911 0 1 0.5 0.5
4 1 4.69677 -2.85955 -3.39555 0.923785 0 0 0.382911 0.5 0.5 1
5 1 5.8377 -3.00372 -2.0914 0 0.707107 0 0.707107 0.5 1 0.5
6 1 5.34346 -2.57893 -1.15486 0.707107 0 0 0.707107 0.5 0.5 1
7 1 6.32927 -2.22988 -0.535304 0.707107 0 0.707107 0 0.5 1 0.5
8 1 7.19365 -2.1802 0.416559 0.57735 0.57735 0.57735 0 1 0.5 0.5
9 1 6.93221 -2.25897 1.68147 0.57735 0 0.57735 0.57735 0.5 0.5 1
10 1 7.0938 -1.37238 3.85554 0 0.57735 0.57735 0.57735 0.5 1 0.5
ITEM: TIMESTEP
1900
ITEM: NUMBER OF ATOMS
10
ITEM: BOX BOUNDS pp pp pp
3.0000000000000000e+00 8.0000000000000000e+00
-4.0000000000000000e+00 0.0000000000000000e+00
-7.0000000000000000e+00 3.0000000000000000e+00
ITEM: ATOMS id type x y z quatw quati quatj quatk shapex shapey shapez
1 1 3.53372 -3.74872 -7.0629 1 0 0 0 0.5 0.5 1
2 1 3.7075 -3.55204 -5.48517 0.923785 0.382911 0 0 0.5 1 0.5
3 1 3.60028 -3.30405 -4.37019 0.923785 0 0.382911 0 1 0.5 0.5
4 1 4.69736 -2.84795 -3.38587 0.923785 0 0 0.382911 0.5 0.5 1
5 1 5.87791 -3.00795 -2.04849 0 0.707107 0 0.707107 0.5 1 0.5
6 1 5.29811 -2.58702 -1.15502 0.707107 0 0 0.707107 0.5 0.5 1
7 1 6.33411 -2.21809 -0.542143 0.707107 0 0.707107 0 0.5 1 0.5
8 1 7.24216 -2.17713 0.437517 0.57735 0.57735 0.57735 0 1 0.5 0.5
9 1 6.93059 -2.27286 1.69265 0.57735 0 0.57735 0.57735 0.5 0.5 1
10 1 7.09743 -1.35398 3.92125 0 0.57735 0.57735 0.57735 0.5 1 0.5
ITEM: TIMESTEP
2000
ITEM: NUMBER OF ATOMS
10
ITEM: BOX BOUNDS pp pp pp
3.0000000000000000e+00 8.0000000000000000e+00
-4.0000000000000000e+00 0.0000000000000000e+00
-7.0000000000000000e+00 3.0000000000000000e+00
ITEM: ATOMS id type x y z quatw quati quatj quatk shapex shapey shapez
1 1 3.52543 -3.75647 -7.10109 1 0 0 0 0.5 0.5 1
2 1 3.69919 -3.55772 -5.4886 0.923785 0.382911 0 0 0.5 1 0.5
3 1 3.56607 -3.30926 -4.37201 0.923785 0 0.382911 0 1 0.5 0.5
4 1 4.69795 -2.83635 -3.37618 0.923785 0 0 0.382911 0.5 0.5 1
5 1 5.91812 -3.01218 -2.00558 0 0.707107 0 0.707107 0.5 1 0.5
6 1 5.25275 -2.5951 -1.15518 0.707107 0 0 0.707107 0.5 0.5 1
7 1 6.33895 -2.2063 -0.548982 0.707107 0 0.707107 0 0.5 1 0.5
8 1 7.29068 -2.17407 0.458474 0.57735 0.57735 0.57735 0 1 0.5 0.5
9 1 6.92897 -2.28675 1.70382 0.57735 0 0.57735 0.57735 0.5 0.5 1
10 1 7.10106 -1.33559 3.98696 0 0.57735 0.57735 0.57735 0.5 1 0.5
ITEM: TIMESTEP
2100
ITEM: NUMBER OF ATOMS
10
ITEM: BOX BOUNDS pp pp pp
3.0000000000000000e+00 8.0000000000000000e+00
-4.0000000000000000e+00 0.0000000000000000e+00
-7.0000000000000000e+00 3.0000000000000000e+00
ITEM: ATOMS id type x y z quatw quati quatj quatk shapex shapey shapez
1 1 3.51715 -3.76422 -7.13928 1 0 0 0 0.5 0.5 1
2 1 3.69087 -3.56341 -5.49203 0.923785 0.382911 0 0 0.5 1 0.5
3 1 3.53186 -3.31448 -4.37383 0.923785 0 0.382911 0 1 0.5 0.5
4 1 4.69855 -2.82474 -3.3665 0.923785 0 0 0.382911 0.5 0.5 1
5 1 5.95833 -3.01642 -1.96267 0 0.707107 0 0.707107 0.5 1 0.5
6 1 5.2074 -2.60319 -1.15534 0.707107 0 0 0.707107 0.5 0.5 1
7 1 6.34379 -2.19452 -0.555821 0.707107 0 0.707107 0 0.5 1 0.5
8 1 7.3392 -2.171 0.479432 0.57735 0.57735 0.57735 0 1 0.5 0.5
9 1 6.92735 -2.30065 1.715 0.57735 0 0.57735 0.57735 0.5 0.5 1
10 1 7.10468 -1.31719 4.05267 0 0.57735 0.57735 0.57735 0.5 1 0.5
ITEM: TIMESTEP
2200
ITEM: NUMBER OF ATOMS
10
ITEM: BOX BOUNDS pp pp pp
3.0000000000000000e+00 8.0000000000000000e+00
-4.0000000000000000e+00 0.0000000000000000e+00
-7.0000000000000000e+00 3.0000000000000000e+00
ITEM: ATOMS id type x y z quatw quati quatj quatk shapex shapey shapez
1 1 3.50886 -3.77197 -7.17747 1 0 0 0 0.5 0.5 1
2 1 3.68256 -3.56909 -5.49546 0.923785 0.382911 0 0 0.5 1 0.5
3 1 3.49764 -3.31969 -4.37565 0.923785 0 0.382911 0 1 0.5 0.5
4 1 4.69914 -2.81314 -3.35681 0.923785 0 0 0.382911 0.5 0.5 1
5 1 5.99854 -3.02065 -1.91976 0 0.707107 0 0.707107 0.5 1 0.5
6 1 5.16205 -2.61128 -1.1555 0.707107 0 0 0.707107 0.5 0.5 1
7 1 6.34862 -2.18273 -0.56266 0.707107 0 0.707107 0 0.5 1 0.5
8 1 7.38771 -2.16793 0.500389 0.57735 0.57735 0.57735 0 1 0.5 0.5
9 1 6.92573 -2.31454 1.72617 0.57735 0 0.57735 0.57735 0.5 0.5 1
10 1 7.10831 -1.29879 4.11838 0 0.57735 0.57735 0.57735 0.5 1 0.5
ITEM: TIMESTEP
2300
ITEM: NUMBER OF ATOMS
10
ITEM: BOX BOUNDS pp pp pp
3.0000000000000000e+00 8.0000000000000000e+00
-4.0000000000000000e+00 0.0000000000000000e+00
-7.0000000000000000e+00 3.0000000000000000e+00
ITEM: ATOMS id type x y z quatw quati quatj quatk shapex shapey shapez
2 1 3.67424 -3.57477 -5.49889 0.923785 0.382911 0 0 0.5 1 0.5
3 1 3.46343 -3.3249 -4.37747 0.923785 0 0.382911 0 1 0.5 0.5
4 1 4.69973 -2.80154 -3.34712 0.923785 0 0 0.382911 0.5 0.5 1
6 1 5.1167 -2.61936 -1.15567 0.707107 0 0 0.707107 0.5 0.5 1
1 1 3.50057 -3.77972 2.78434 1 0 0 0 0.5 0.5 1
10 1 7.11194 -1.28039 -5.81591 0 0.57735 0.57735 0.57735 0.5 1 0.5
7 1 6.35346 -2.17094 -0.569499 0.707107 0 0.707107 0 0.5 1 0.5
5 1 6.03875 -3.02488 -1.87685 0 0.707107 0 0.707107 0.5 1 0.5
8 1 7.43623 -2.16487 0.521347 0.57735 0.57735 0.57735 0 1 0.5 0.5
9 1 6.92411 -2.32843 1.73735 0.57735 0 0.57735 0.57735 0.5 0.5 1
ITEM: TIMESTEP
2400
ITEM: NUMBER OF ATOMS
10
ITEM: BOX BOUNDS pp pp pp
3.0000000000000000e+00 8.0000000000000000e+00
-4.0000000000000000e+00 0.0000000000000000e+00
-7.0000000000000000e+00 3.0000000000000000e+00
ITEM: ATOMS id type x y z quatw quati quatj quatk shapex shapey shapez
2 1 3.66593 -3.58046 -5.50232 0.923785 0.382911 0 0 0.5 1 0.5
3 1 3.42922 -3.33011 -4.37929 0.923785 0 0.382911 0 1 0.5 0.5
4 1 4.70032 -2.78993 -3.33744 0.923785 0 0 0.382911 0.5 0.5 1
6 1 5.07134 -2.62745 -1.15583 0.707107 0 0 0.707107 0.5 0.5 1
1 1 3.49229 -3.78746 2.74615 1 0 0 0 0.5 0.5 1
10 1 7.11557 -1.262 -5.7502 0 0.57735 0.57735 0.57735 0.5 1 0.5
7 1 6.3583 -2.15915 -0.576338 0.707107 0 0.707107 0 0.5 1 0.5
5 1 6.07896 -3.02912 -1.83394 0 0.707107 0 0.707107 0.5 1 0.5
8 1 7.48475 -2.1618 0.542304 0.57735 0.57735 0.57735 0 1 0.5 0.5
9 1 6.92249 -2.34233 1.74852 0.57735 0 0.57735 0.57735 0.5 0.5 1
ITEM: TIMESTEP
2500
ITEM: NUMBER OF ATOMS
10
ITEM: BOX BOUNDS pp pp pp
3.0000000000000000e+00 8.0000000000000000e+00
-4.0000000000000000e+00 0.0000000000000000e+00
-7.0000000000000000e+00 3.0000000000000000e+00
ITEM: ATOMS id type x y z quatw quati quatj quatk shapex shapey shapez
2 1 3.65761 -3.58614 -5.50575 0.923785 0.382911 0 0 0.5 1 0.5
3 1 3.39501 -3.33532 -4.38111 0.923785 0 0.382911 0 1 0.5 0.5
4 1 4.70091 -2.77833 -3.32775 0.923785 0 0 0.382911 0.5 0.5 1
6 1 5.02599 -2.63554 -1.15599 0.707107 0 0 0.707107 0.5 0.5 1
1 1 3.484 -3.79521 2.70796 1 0 0 0 0.5 0.5 1
10 1 7.11919 -1.2436 -5.68449 0 0.57735 0.57735 0.57735 0.5 1 0.5
7 1 6.36314 -2.14736 -0.583177 0.707107 0 0.707107 0 0.5 1 0.5
5 1 6.11917 -3.03335 -1.79102 0 0.707107 0 0.707107 0.5 1 0.5
8 1 7.53326 -2.15873 0.563262 0.57735 0.57735 0.57735 0 1 0.5 0.5
9 1 6.92087 -2.35622 1.7597 0.57735 0 0.57735 0.57735 0.5 0.5 1
ITEM: TIMESTEP
2600
ITEM: NUMBER OF ATOMS
10
ITEM: BOX BOUNDS pp pp pp
3.0000000000000000e+00 8.0000000000000000e+00
-4.0000000000000000e+00 0.0000000000000000e+00
-7.0000000000000000e+00 3.0000000000000000e+00
ITEM: ATOMS id type x y z quatw quati quatj quatk shapex shapey shapez
2 1 3.6493 -3.59183 -5.50918 0.923785 0.382911 0 0 0.5 1 0.5
3 1 3.3608 -3.34053 -4.38293 0.923785 0 0.382911 0 1 0.5 0.5
4 1 4.70151 -2.76673 -3.31807 0.923785 0 0 0.382911 0.5 0.5 1
6 1 4.98064 -2.64362 -1.15615 0.707107 0 0 0.707107 0.5 0.5 1
1 1 3.47571 -3.80296 2.66977 1 0 0 0 0.5 0.5 1
10 1 7.12282 -1.2252 -5.61878 0 0.57735 0.57735 0.57735 0.5 1 0.5
7 1 6.36798 -2.13557 -0.590016 0.707107 0 0.707107 0 0.5 1 0.5
5 1 6.15938 -3.03758 -1.74811 0 0.707107 0 0.707107 0.5 1 0.5
8 1 7.58178 -2.15566 0.584219 0.57735 0.57735 0.57735 0 1 0.5 0.5
9 1 6.91925 -2.37011 1.77087 0.57735 0 0.57735 0.57735 0.5 0.5 1
ITEM: TIMESTEP
2700
ITEM: NUMBER OF ATOMS
10
ITEM: BOX BOUNDS pp pp pp
3.0000000000000000e+00 8.0000000000000000e+00
-4.0000000000000000e+00 0.0000000000000000e+00
-7.0000000000000000e+00 3.0000000000000000e+00
ITEM: ATOMS id type x y z quatw quati quatj quatk shapex shapey shapez
2 1 3.64098 -3.59751 -5.51261 0.923785 0.382911 0 0 0.5 1 0.5
3 1 3.32659 -3.34574 -4.38475 0.923785 0 0.382911 0 1 0.5 0.5
4 1 4.7021 -2.75512 -3.30838 0.923785 0 0 0.382911 0.5 0.5 1
6 1 4.93529 -2.65171 -1.15631 0.707107 0 0 0.707107 0.5 0.5 1
1 1 3.46743 -3.81071 2.63158 1 0 0 0 0.5 0.5 1
10 1 7.12645 -1.2068 -5.55307 0 0.57735 0.57735 0.57735 0.5 1 0.5
7 1 6.37282 -2.12378 -0.596855 0.707107 0 0.707107 0 0.5 1 0.5
5 1 6.19959 -3.04182 -1.7052 0 0.707107 0 0.707107 0.5 1 0.5
8 1 7.6303 -2.1526 0.605177 0.57735 0.57735 0.57735 0 1 0.5 0.5
9 1 6.91763 -2.384 1.78205 0.57735 0 0.57735 0.57735 0.5 0.5 1
ITEM: TIMESTEP
2800
ITEM: NUMBER OF ATOMS
10
ITEM: BOX BOUNDS pp pp pp
3.0000000000000000e+00 8.0000000000000000e+00
-4.0000000000000000e+00 0.0000000000000000e+00
-7.0000000000000000e+00 3.0000000000000000e+00
ITEM: ATOMS id type x y z quatw quati quatj quatk shapex shapey shapez
2 1 3.63267 -3.60319 -5.51604 0.923785 0.382911 0 0 0.5 1 0.5
3 1 3.29238 -3.35096 -4.38657 0.923785 0 0.382911 0 1 0.5 0.5
4 1 4.70269 -2.74352 -3.29869 0.923785 0 0 0.382911 0.5 0.5 1
6 1 4.88993 -2.6598 -1.15647 0.707107 0 0 0.707107 0.5 0.5 1
1 1 3.45914 -3.81846 2.5934 1 0 0 0 0.5 0.5 1
10 1 7.13008 -1.18841 -5.48736 0 0.57735 0.57735 0.57735 0.5 1 0.5
7 1 6.37766 -2.11199 -0.603694 0.707107 0 0.707107 0 0.5 1 0.5
5 1 6.2398 -3.04605 -1.66229 0 0.707107 0 0.707107 0.5 1 0.5
8 1 7.67881 -2.14953 0.626134 0.57735 0.57735 0.57735 0 1 0.5 0.5
9 1 6.91601 -2.3979 1.79322 0.57735 0 0.57735 0.57735 0.5 0.5 1
ITEM: TIMESTEP
2900
ITEM: NUMBER OF ATOMS
10
ITEM: BOX BOUNDS pp pp pp
3.0000000000000000e+00 8.0000000000000000e+00
-4.0000000000000000e+00 0.0000000000000000e+00
-7.0000000000000000e+00 3.0000000000000000e+00
ITEM: ATOMS id type x y z quatw quati quatj quatk shapex shapey shapez
2 1 3.62435 -3.60888 -5.51947 0.923785 0.382911 0 0 0.5 1 0.5
3 1 3.25817 -3.35617 -4.38839 0.923785 0 0.382911 0 1 0.5 0.5
4 1 4.70328 -2.73192 -3.28901 0.923785 0 0 0.382911 0.5 0.5 1
6 1 4.84458 -2.66788 -1.15663 0.707107 0 0 0.707107 0.5 0.5 1
1 1 3.45085 -3.82621 2.55521 1 0 0 0 0.5 0.5 1
10 1 7.1337 -1.17001 -5.42165 0 0.57735 0.57735 0.57735 0.5 1 0.5
7 1 6.3825 -2.1002 -0.610533 0.707107 0 0.707107 0 0.5 1 0.5
5 1 6.28001 -3.05028 -1.61938 0 0.707107 0 0.707107 0.5 1 0.5
8 1 7.72733 -2.14646 0.647092 0.57735 0.57735 0.57735 0 1 0.5 0.5
9 1 6.91439 -2.41179 1.8044 0.57735 0 0.57735 0.57735 0.5 0.5 1
ITEM: TIMESTEP
3000
ITEM: NUMBER OF ATOMS
10
ITEM: BOX BOUNDS pp pp pp
3.0000000000000000e+00 8.0000000000000000e+00
-4.0000000000000000e+00 0.0000000000000000e+00
-7.0000000000000000e+00 3.0000000000000000e+00
ITEM: ATOMS id type x y z quatw quati quatj quatk shapex shapey shapez
2 1 3.61604 -3.61456 -5.5229 0.923785 0.382911 0 0 0.5 1 0.5
3 1 3.22395 -3.36138 -4.39021 0.923785 0 0.382911 0 1 0.5 0.5
4 1 4.70387 -2.72032 -3.27932 0.923785 0 0 0.382911 0.5 0.5 1
6 1 4.79923 -2.67597 -1.15679 0.707107 0 0 0.707107 0.5 0.5 1
1 1 3.44257 -3.83396 2.51702 1 0 0 0 0.5 0.5 1
10 1 7.13733 -1.15161 -5.35594 0 0.57735 0.57735 0.57735 0.5 1 0.5
7 1 6.38734 -2.08841 -0.617372 0.707107 0 0.707107 0 0.5 1 0.5
5 1 6.32022 -3.05452 -1.57647 0 0.707107 0 0.707107 0.5 1 0.5
8 1 7.77585 -2.14339 0.668049 0.57735 0.57735 0.57735 0 1 0.5 0.5
9 1 6.91277 -2.42568 1.81557 0.57735 0 0.57735 0.57735 0.5 0.5 1
ITEM: TIMESTEP
3100
ITEM: NUMBER OF ATOMS
10
ITEM: BOX BOUNDS pp pp pp
3.0000000000000000e+00 8.0000000000000000e+00
-4.0000000000000000e+00 0.0000000000000000e+00
-7.0000000000000000e+00 3.0000000000000000e+00
ITEM: ATOMS id type x y z quatw quati quatj quatk shapex shapey shapez
2 1 3.60772 -3.62024 -5.52632 0.923785 0.382911 0 0 0.5 1 0.5
3 1 3.18974 -3.36659 -4.39203 0.923785 0 0.382911 0 1 0.5 0.5
4 1 4.70447 -2.70871 -3.26964 0.923785 0 0 0.382911 0.5 0.5 1
6 1 4.75387 -2.68406 -1.15696 0.707107 0 0 0.707107 0.5 0.5 1
1 1 3.43428 -3.84171 2.47883 1 0 0 0 0.5 0.5 1
10 1 7.14096 -1.13321 -5.29023 0 0.57735 0.57735 0.57735 0.5 1 0.5
7 1 6.39218 -2.07662 -0.624212 0.707107 0 0.707107 0 0.5 1 0.5
5 1 6.36043 -3.05875 -1.53356 0 0.707107 0 0.707107 0.5 1 0.5
8 1 7.82436 -2.14033 0.689007 0.57735 0.57735 0.57735 0 1 0.5 0.5
9 1 6.91115 -2.43958 1.82675 0.57735 0 0.57735 0.57735 0.5 0.5 1
ITEM: TIMESTEP
3200
ITEM: NUMBER OF ATOMS
10
ITEM: BOX BOUNDS pp pp pp
3.0000000000000000e+00 8.0000000000000000e+00
-4.0000000000000000e+00 0.0000000000000000e+00
-7.0000000000000000e+00 3.0000000000000000e+00
ITEM: ATOMS id type x y z quatw quati quatj quatk shapex shapey shapez
2 1 3.59941 -3.62593 -5.52975 0.923785 0.382911 0 0 0.5 1 0.5
3 1 3.15553 -3.3718 -4.39385 0.923785 0 0.382911 0 1 0.5 0.5
4 1 4.70506 -2.69711 -3.25995 0.923785 0 0 0.382911 0.5 0.5 1
6 1 4.70852 -2.69214 -1.15712 0.707107 0 0 0.707107 0.5 0.5 1
1 1 3.42599 -3.84946 2.44064 1 0 0 0 0.5 0.5 1
10 1 7.14459 -1.11482 -5.22452 0 0.57735 0.57735 0.57735 0.5 1 0.5
7 1 6.39702 -2.06483 -0.631051 0.707107 0 0.707107 0 0.5 1 0.5
5 1 6.40063 -3.06299 -1.49065 0 0.707107 0 0.707107 0.5 1 0.5
8 1 7.87288 -2.13726 0.709965 0.57735 0.57735 0.57735 0 1 0.5 0.5
9 1 6.90953 -2.45347 1.83792 0.57735 0 0.57735 0.57735 0.5 0.5 1
ITEM: TIMESTEP
3300
ITEM: NUMBER OF ATOMS
10
ITEM: BOX BOUNDS pp pp pp
3.0000000000000000e+00 8.0000000000000000e+00
-4.0000000000000000e+00 0.0000000000000000e+00
-7.0000000000000000e+00 3.0000000000000000e+00
ITEM: ATOMS id type x y z quatw quati quatj quatk shapex shapey shapez
2 1 3.5911 -3.63161 -5.53318 0.923785 0.382911 0 0 0.5 1 0.5
3 1 3.12132 -3.37701 -4.39567 0.923785 0 0.382911 0 1 0.5 0.5