ITEM: TIMESTEP
0
ITEM: NUMBER OF ATOMS
10
ITEM: BOX BOUNDS pp pp pp
3.0000000000000000e+00 8.0000000000000000e+00
-4.0000000000000000e+00 0.0000000000000000e+00
-7.0000000000000000e+00 3.0000000000000000e+00
ITEM: ATOMS id type xs ys zs
1 1 0.134415 0.095131 0.0549478
2 1 0.171846 0.138208 0.159649
3 1 0.225196 0.190333 0.255438
4 1 0.334973 0.241511 0.340428
5 1 0.453194 0.270684 0.433243
6 1 0.499823 0.335817 0.527808
7 1 0.660635 0.425301 0.638206
8 1 0.783337 0.456991 0.750266
9 1 0.79425 0.501516 0.879339
10 1 0.806165 0.577058 0.970839
ITEM: TIMESTEP
1000
ITEM: NUMBER OF ATOMS
10
ITEM: BOX BOUNDS pp pp pp
3.0000000000000000e+00 8.0000000000000000e+00
-4.0000000000000000e+00 0.0000000000000000e+00
-7.0000000000000000e+00 3.0000000000000000e+00
ITEM: ATOMS id type xs ys zs
1 1 0.134415 0.095131 0.0559478
2 1 0.171846 0.138208 0.160649
3 1 0.225196 0.190333 0.256438
4 1 0.334973 0.241511 0.341428
5 1 0.453194 0.270684 0.434243
6 1 0.499823 0.335817 0.528808
7 1 0.660635 0.425301 0.639206
8 1 0.783337 0.456991 0.751266
9 1 0.79425 0.501516 0.880339
10 1 0.806165 0.577058 0.971839
ITEM: TIMESTEP
2000
ITEM: NUMBER OF ATOMS
10
ITEM: BOX BOUNDS pp pp pp
3.0000000000000000e+00 8.0000000000000000e+00
-4.0000000000000000e+00 0.0000000000000000e+00
-7.0000000000000000e+00 3.0000000000000000e+00
ITEM: ATOMS id type xs ys zs
1 1 0.134415 0.095131 0.0569478
2 1 0.171846 0.138208 0.161649
3 1 0.225196 0.190333 0.257438
4 1 0.334973 0.241511 0.342428
5 1 0.453194 0.270684 0.435243
6 1 0.499823 0.335817 0.529808
7 1 0.660635 0.425301 0.640206
8 1 0.783337 0.456991 0.752266
9 1 0.79425 0.501516 0.881339
10 1 0.806165 0.577058 0.972839
ITEM: TIMESTEP
3000
ITEM: NUMBER OF ATOMS
10
ITEM: BOX BOUNDS pp pp pp
3.0000000000000000e+00 8.0000000000000000e+00
-4.0000000000000000e+00 0.0000000000000000e+00
-7.0000000000000000e+00 3.0000000000000000e+00
ITEM: ATOMS id type xs ys zs
1 1 0.134415 0.095131 0.0579478
2 1 0.171846 0.138208 0.162649
3 1 0.225196 0.190333 0.258438
4 1 0.334973 0.241511 0.343428
5 1 0.453194 0.270684 0.436243
6 1 0.499823 0.335817 0.530808
7 1 0.660635 0.425301 0.641206
8 1 0.783337 0.456991 0.753266
9 1 0.79425 0.501516 0.882339
10 1 0.806165 0.577058 0.973839
ITEM: TIMESTEP
4000
ITEM: NUMBER OF ATOMS
10
ITEM: BOX BOUNDS pp pp pp
3.0000000000000000e+00 8.0000000000000000e+00
-4.0000000000000000e+00 0.0000000000000000e+00
-7.0000000000000000e+00 3.0000000000000000e+00
ITEM: ATOMS id type xs ys zs
1 1 0.134415 0.095131 0.0589478
2 1 0.171846 0.138208 0.163649
3 1 0.225196 0.190333 0.259438
4 1 0.334973 0.241511 0.344428
5 1 0.453194 0.270684 0.437243
6 1 0.499823 0.335817 0.531808
7 1 0.660635 0.425301 0.642206
8 1 0.783337 0.456991 0.754266
9 1 0.79425 0.501516 0.883339
10 1 0.806165 0.577058 0.974839
ITEM: TIMESTEP
5000
ITEM: NUMBER OF ATOMS
10
ITEM: BOX BOUNDS pp pp pp
3.0000000000000000e+00 8.0000000000000000e+00
-4.0000000000000000e+00 0.0000000000000000e+00
-7.0000000000000000e+00 3.0000000000000000e+00
ITEM: ATOMS id type xs ys zs
1 1 0.134415 0.095131 0.0599478
2 1 0.171846 0.138208 0.164649
3 1 0.225196 0.190333 0.260438
4 1 0.334973 0.241511 0.345428
5 1 0.453194 0.270684 0.438243
6 1 0.499823 0.335817 0.532808
7 1 0.660635 0.425301 0.643206
8 1 0.783337 0.456991 0.755266
9 1 0.79425 0.501516 0.884339
10 1 0.806165 0.577058 0.975839
ITEM: TIMESTEP
6000
ITEM: NUMBER OF ATOMS
10
ITEM: BOX BOUNDS pp pp pp
3.0000000000000000e+00 8.0000000000000000e+00
-4.0000000000000000e+00 0.0000000000000000e+00
-7.0000000000000000e+00 3.0000000000000000e+00
ITEM: ATOMS id type xs ys zs
1 1 0.134415 0.095131 0.0609478
2 1 0.171846 0.138208 0.165649
3 1 0.225196 0.190333 0.261438
4 1 0.334973 0.241511 0.346428
5 1 0.453194 0.270684 0.439243
6 1 0.499823 0.335817 0.533808
7 1 0.660635 0.425301 0.644206
8 1 0.783337 0.456991 0.756266
9 1 0.79425 0.501516 0.885339
10 1 0.806165 0.577058 0.976839
ITEM: TIMESTEP
7000
ITEM: NUMBER OF ATOMS
10
ITEM: BOX BOUNDS pp pp pp
3.0000000000000000e+00 8.0000000000000000e+00
-4.0000000000000000e+00 0.0000000000000000e+00
-7.0000000000000000e+00 3.0000000000000000e+00
ITEM: ATOMS id type xs ys zs
1 1 0.134415 0.095131 0.0619478
2 1 0.171846 0.138208 0.166649
3 1 0.225196 0.190333 0.262438
4 1 0.334973 0.241511 0.347428
5 1 0.453194 0.270684 0.440243
6 1 0.499823 0.335817 0.534808
7 1 0.660635 0.425301 0.645206
8 1 0.783337 0.456991 0.757266
9 1 0.79425 0.501516 0.886339
10 1 0.806165 0.577058 0.977839
ITEM: TIMESTEP
8000
ITEM: NUMBER OF ATOMS
10
ITEM: BOX BOUNDS pp pp pp
3.0000000000000000e+00 8.0000000000000000e+00
-4.0000000000000000e+00 0.0000000000000000e+00
-7.0000000000000000e+00 3.0000000000000000e+00
ITEM: ATOMS id type xs ys zs
1 1 0.134415 0.095131 0.0629478
2 1 0.171846 0.138208 0.167649
3 1 0.225196 0.190333 0.263438
4 1 0.334973 0.241511 0.348428
5 1 0.453194 0.270684 0.441243
6 1 0.499823 0.335817 0.535808
7 1 0.660635 0.425301 0.646206
8 1 0.783337 0.456991 0.758266
9 1 0.79425 0.501516 0.887339
10 1 0.806165 0.577058 0.978839
ITEM: TIMESTEP
9000
ITEM: NUMBER OF ATOMS
10
ITEM: BOX BOUNDS pp pp pp
3.0000000000000000e+00 8.0000000000000000e+00
-4.0000000000000000e+00 0.0000000000000000e+00
-7.0000000000000000e+00 3.0000000000000000e+00
ITEM: ATOMS id type xs ys zs
1 1 0.134415 0.095131 0.0639478
2 1 0.171846 0.138208 0.168649
3 1 0.225196 0.190333 0.264438
4 1 0.334973 0.241511 0.349428
5 1 0.453194 0.270684 0.442243
6 1 0.499823 0.335817 0.536808
7 1 0.660635 0.425301 0.647206
8 1 0.783337 0.456991 0.759266
9 1 0.79425 0.501516 0.888339
10 1 0.806165 0.577058 0.979839
ITEM: TIMESTEP
10000
ITEM: NUMBER OF ATOMS
10
ITEM: BOX BOUNDS pp pp pp
3.0000000000000000e+00 8.0000000000000000e+00
-4.0000000000000000e+00 0.0000000000000000e+00
-7.0000000000000000e+00 3.0000000000000000e+00
ITEM: ATOMS id type xs ys zs
1 1 0.134415 0.095131 0.0649478
2 1 0.171846 0.138208 0.169649
3 1 0.225196 0.190333 0.265438
4 1 0.334973 0.241511 0.350428
5 1 0.453194 0.270684 0.443243
6 1 0.499823 0.335817 0.537808
7 1 0.660635 0.425301 0.648206
8 1 0.783337 0.456991 0.760266
9 1 0.79425 0.501516 0.889339
10 1 0.806165 0.577058 0.980839
ITEM: TIMESTEP
11000
ITEM: NUMBER OF ATOMS
10
ITEM: BOX BOUNDS pp pp pp
3.0000000000000000e+00 8.0000000000000000e+00
-4.0000000000000000e+00 0.0000000000000000e+00
-7.0000000000000000e+00 3.0000000000000000e+00
ITEM: ATOMS id type xs ys zs
1 1 0.134415 0.095131 0.0659478
2 1 0.171846 0.138208 0.170649
3 1 0.225196 0.190333 0.266438
4 1 0.334973 0.241511 0.351428
5 1 0.453194 0.270684 0.444243
6 1 0.499823 0.335817 0.538808
7 1 0.660635 0.425301 0.649206
8 1 0.783337 0.456991 0.761266
9 1 0.79425 0.501516 0.890339
10 1 0.806165 0.577058 0.981839
ITEM: TIMESTEP
12000
ITEM: NUMBER OF ATOMS
10
ITEM: BOX BOUNDS pp pp pp
3.0000000000000000e+00 8.0000000000000000e+00
-4.0000000000000000e+00 0.0000000000000000e+00
-7.0000000000000000e+00 3.0000000000000000e+00
ITEM: ATOMS id type xs ys zs
1 1 0.134415 0.095131 0.0669478
2 1 0.171846 0.138208 0.171649
3 1 0.225196 0.190333 0.267438
4 1 0.334973 0.241511 0.352428
5 1 0.453194 0.270684 0.445243
6 1 0.499823 0.335817 0.539808
7 1 0.660635 0.425301 0.650206
8 1 0.783337 0.456991 0.762266
9 1 0.79425 0.501516 0.891339
10 1 0.806165 0.577058 0.982839
ITEM: TIMESTEP
13000
ITEM: NUMBER OF ATOMS
10
ITEM: BOX BOUNDS pp pp pp
3.0000000000000000e+00 8.0000000000000000e+00
-4.0000000000000000e+00 0.0000000000000000e+00
-7.0000000000000000e+00 3.0000000000000000e+00
ITEM: ATOMS id type xs ys zs
1 1 0.134415 0.095131 0.0679478
2 1 0.171846 0.138208 0.172649
3 1 0.225196 0.190333 0.268438
4 1 0.334973 0.241511 0.353428
5 1 0.453194 0.270684 0.446243
6 1 0.499823 0.335817 0.540808
7 1 0.660635 0.425301 0.651206
8 1 0.783337 0.456991 0.763266
9 1 0.79425 0.501516 0.892339
10 1 0.806165 0.577058 0.983839
ITEM: TIMESTEP
14000
ITEM: NUMBER OF ATOMS
10
ITEM: BOX BOUNDS pp pp pp
3.0000000000000000e+00 8.0000000000000000e+00
-4.0000000000000000e+00 0.0000000000000000e+00
-7.0000000000000000e+00 3.0000000000000000e+00
ITEM: ATOMS id type xs ys zs
1 1 0.134415 0.095131 0.0689478
2 1 0.171846 0.138208 0.173649
3 1 0.225196 0.190333 0.269438
4 1 0.334973 0.241511 0.354428
5 1 0.453194 0.270684 0.447243
6 1 0.499823 0.335817 0.541808
7 1 0.660635 0.425301 0.652206
8 1 0.783337 0.456991 0.764266
9 1 0.79425 0.501516 0.893339
10 1 0.806165 0.577058 0.984839
ITEM: TIMESTEP
15000
ITEM: NUMBER OF ATOMS
10
ITEM: BOX BOUNDS pp pp pp
3.0000000000000000e+00 8.0000000000000000e+00
-4.0000000000000000e+00 0.0000000000000000e+00
-7.0000000000000000e+00 3.0000000000000000e+00
ITEM: ATOMS id type xs ys zs
1 1 0.134415 0.095131 0.0699478
2 1 0.171846 0.138208 0.174649
3 1 0.225196 0.190333 0.270438
4 1 0.334973 0.241511 0.355428
5 1 0.453194 0.270684 0.448243
6 1 0.499823 0.335817 0.542808
7 1 0.660635 0.425301 0.653206
8 1 0.783337 0.456991 0.765266
9 1 0.79425 0.501516 0.894339
10 1 0.806165 0.577058 0.985839
ITEM: TIMESTEP
16000
ITEM: NUMBER OF ATOMS
10
ITEM: BOX BOUNDS pp pp pp
3.0000000000000000e+00 8.0000000000000000e+00
-4.0000000000000000e+00 0.0000000000000000e+00
-7.0000000000000000e+00 3.0000000000000000e+00
ITEM: ATOMS id type xs ys zs
1 1 0.134415 0.095131 0.0709478
2 1 0.171846 0.138208 0.175649
3 1 0.225196 0.190333 0.271438
4 1 0.334973 0.241511 0.356428
5 1 0.453194 0.270684 0.449243
6 1 0.499823 0.335817 0.543808
7 1 0.660635 0.425301 0.654206
8 1 0.783337 0.456991 0.766266
9 1 0.79425 0.501516 0.895339
10 1 0.806165 0.577058 0.986839
ITEM: TIMESTEP
17000
ITEM: NUMBER OF ATOMS
10
ITEM: BOX BOUNDS pp pp pp
3.0000000000000000e+00 8.0000000000000000e+00
-4.0000000000000000e+00 0.0000000000000000e+00
-7.0000000000000000e+00 3.0000000000000000e+00
ITEM: ATOMS id type xs ys zs
1 1 0.134415 0.095131 0.0719478
2 1 0.171846 0.138208 0.176649
3 1 0.225196 0.190333 0.272438
4 1 0.334973 0.241511 0.357428
5 1 0.453194 0.270684 0.450243
6 1 0.499823 0.335817 0.544808
7 1 0.660635 0.425301 0.655206
8 1 0.783337 0.456991 0.767266
9 1 0.79425 0.501516 0.896339
10 1 0.806165 0.577058 0.987839
ITEM: TIMESTEP
18000
ITEM: NUMBER OF ATOMS
10
ITEM: BOX BOUNDS pp pp pp
3.0000000000000000e+00 8.0000000000000000e+00
-4.0000000000000000e+00 0.0000000000000000e+00
-7.0000000000000000e+00 3.0000000000000000e+00
ITEM: ATOMS id type xs ys zs
1 1 0.134415 0.095131 0.0729478
2 1 0.171846 0.138208 0.177649
3 1 0.225196 0.190333 0.273438
4 1 0.334973 0.241511 0.358428
5 1 0.453194 0.270684 0.451243
6 1 0.499823 0.335817 0.545808
7 1 0.660635 0.425301 0.656206
8 1 0.783337 0.456991 0.768266
9 1 0.79425 0.501516 0.897339
10 1 0.806165 0.577058 0.988839
ITEM: TIMESTEP
19000
ITEM: NUMBER OF ATOMS
10
ITEM: BOX BOUNDS pp pp pp
3.0000000000000000e+00 8.0000000000000000e+00
-4.0000000000000000e+00 0.0000000000000000e+00
-7.0000000000000000e+00 3.0000000000000000e+00
ITEM: ATOMS id type xs ys zs
1 1 0.134415 0.095131 0.0739478
2 1 0.171846 0.138208 0.178649
3 1 0.225196 0.190333 0.274438
4 1 0.334973 0.241511 0.359428
5 1 0.453194 0.270684 0.452243
6 1 0.499823 0.335817 0.546808
7 1 0.660635 0.425301 0.657206
8 1 0.783337 0.456991 0.769266
9 1 0.79425 0.501516 0.898339
10 1 0.806165 0.577058 0.989839
ITEM: TIMESTEP
20000
ITEM: NUMBER OF ATOMS
10
ITEM: BOX BOUNDS pp pp pp
3.0000000000000000e+00 8.0000000000000000e+00
-4.0000000000000000e+00 0.0000000000000000e+00
-7.0000000000000000e+00 3.0000000000000000e+00
ITEM: ATOMS id type xs ys zs
1 1 0.134415 0.095131 0.0749478
2 1 0.171846 0.138208 0.179649
3 1 0.225196 0.190333 0.275438
4 1 0.334973 0.241511 0.360428
5 1 0.453194 0.270684 0.453243
6 1 0.499823 0.335817 0.547808
7 1 0.660635 0.425301 0.658206
8 1 0.783337 0.456991 0.770266
9 1 0.79425 0.501516 0.899339
10 1 0.806165 0.577058 0.990839
ITEM: TIMESTEP
21000
ITEM: NUMBER OF ATOMS
10
ITEM: BOX BOUNDS pp pp pp
3.0000000000000000e+00 8.0000000000000000e+00
-4.0000000000000000e+00 0.0000000000000000e+00
-7.0000000000000000e+00 3.0000000000000000e+00
ITEM: ATOMS id type xs ys zs
1 1 0.134415 0.095131 0.0759478
2 1 0.171846 0.138208 0.180649
3 1 0.225196 0.190333 0.276438
4 1 0.334973 0.241511 0.361428
5 1 0.453194 0.270684 0.454243
6 1 0.499823 0.335817 0.548808
7 1 0.660635 0.425301 0.659206
8 1 0.783337 0.456991 0.771266
9 1 0.79425 0.501516 0.900339
10 1 0.806165 0.577058 0.991839
ITEM: TIMESTEP
22000
ITEM: NUMBER OF ATOMS
10
ITEM: BOX BOUNDS pp pp pp
3.0000000000000000e+00 8.0000000000000000e+00
-4.0000000000000000e+00 0.0000000000000000e+00
-7.0000000000000000e+00 3.0000000000000000e+00
ITEM: ATOMS id type xs ys zs
1 1 0.134415 0.095131 0.0769478
2 1 0.171846 0.138208 0.181649
3 1 0.225196 0.190333 0.277438
4 1 0.334973 0.241511 0.362428
5 1 0.453194 0.270684 0.455243
6 1 0.499823 0.335817 0.549808
7 1 0.660635 0.425301 0.660206
8 1 0.783337 0.456991 0.772266
9 1 0.79425 0.501516 0.901339
10 1 0.806165 0.577058 0.992839
ITEM: TIMESTEP
23000
ITEM: NUMBER OF ATOMS
10
ITEM: BOX BOUNDS pp pp pp
3.0000000000000000e+00 8.0000000000000000e+00
-4.0000000000000000e+00 0.0000000000000000e+00
-7.0000000000000000e+00 3.0000000000000000e+00
ITEM: ATOMS id type xs ys zs
1 1 0.134415 0.095131 0.0779478
2 1 0.171846 0.138208 0.182649
3 1 0.225196 0.190333 0.278438
4 1 0.334973 0.241511 0.363428
5 1 0.453194 0.270684 0.456243
6 1 0.499823 0.335817 0.550808
7 1 0.660635 0.425301 0.661206
8 1 0.783337 0.456991 0.773266
9 1 0.79425 0.501516 0.902339
10 1 0.806165 0.577058 0.993839
ITEM: TIMESTEP
24000
ITEM: NUMBER OF ATOMS
10
ITEM: BOX BOUNDS pp pp pp
3.0000000000000000e+00 8.0000000000000000e+00
-4.0000000000000000e+00 0.0000000000000000e+00
-7.0000000000000000e+00 3.0000000000000000e+00
ITEM: ATOMS id type xs ys zs
1 1 0.134415 0.095131 0.0789478
2 1 0.171846 0.138208 0.183649
3 1 0.225196 0.190333 0.279438
4 1 0.334973 0.241511 0.364428
5 1 0.453194 0.270684 0.457243
6 1 0.499823 0.335817 0.551808
7 1 0.660635 0.425301 0.662206
8 1 0.783337 0.456991 0.774266
9 1 0.79425 0.501516 0.903339
10 1 0.806165 0.577058 0.994839
ITEM: TIMESTEP
25000
ITEM: NUMBER OF ATOMS
10
ITEM: BOX BOUNDS pp pp pp
3.0000000000000000e+00 8.0000000000000000e+00
-4.0000000000000000e+00 0.0000000000000000e+00
-7.0000000000000000e+00 3.0000000000000000e+00
ITEM: ATOMS id type xs ys zs
1 1 0.134415 0.095131 0.0799478
2 1 0.171846 0.138208 0.184649
3 1 0.225196 0.190333 0.280438
4 1 0.334973 0.241511 0.365428
5 1 0.453194 0.270684 0.458243
6 1 0.499823 0.335817 0.552808
7 1 0.660635 0.425301 0.663206
8 1 0.783337 0.456991 0.775266
9 1 0.79425 0.501516 0.904339
10 1 0.806165 0.577058 0.995839
ITEM: TIMESTEP
26000
ITEM: NUMBER OF ATOMS
10
ITEM: BOX BOUNDS pp pp pp
3.0000000000000000e+00 8.0000000000000000e+00
-4.0000000000000000e+00 0.0000000000000000e+00
-7.0000000000000000e+00 3.0000000000000000e+00
ITEM: ATOMS id type xs ys zs
1 1 0.134415 0.095131 0.0809478
2 1 0.171846 0.138208 0.185649
3 1 0.225196 0.190333 0.281438
4 1 0.334973 0.241511 0.366428
5 1 0.453194 0.270684 0.459243
6 1 0.499823 0.335817 0.553808
7 1 0.660635 0.425301 0.664206
8 1 0.783337 0.456991 0.776266
9 1 0.79425 0.501516 0.905339
10 1 0.806165 0.577058 0.996839
ITEM: TIMESTEP
27000
ITEM: NUMBER OF ATOMS
10
ITEM: BOX BOUNDS pp pp pp
3.0000000000000000e+00 8.0000000000000000e+00
-4.0000000000000000e+00 0.0000000000000000e+00
-7.0000000000000000e+00 3.0000000000000000e+00
ITEM: ATOMS id type xs ys zs
1 1 0.134415 0.095131 0.0819478
2 1 0.171846 0.138208 0.186649
3 1 0.225196 0.190333 0.282438
4 1 0.334973 0.241511 0.367428
5 1 0.453194 0.270684 0.460243
6 1 0.499823 0.335817 0.554808
7 1 0.660635 0.425301 0.665206
8 1 0.783337 0.456991 0.777266
9 1 0.79425 0.501516 0.906339
10 1 0.806165 0.577058 0.997839
ITEM: TIMESTEP
28000
ITEM: NUMBER OF ATOMS
10
ITEM: BOX BOUNDS pp pp pp
3.0000000000000000e+00 8.0000000000000000e+00
-4.0000000000000000e+00 0.0000000000000000e+00
-7.0000000000000000e+00 3.0000000000000000e+00
ITEM: ATOMS id type xs ys zs
1 1 0.134415 0.095131 0.0829478
2 1 0.171846 0.138208 0.187649
3 1 0.225196 0.190333 0.283438
4 1 0.334973 0.241511 0.368428
5 1 0.453194 0.270684 0.461243
6 1 0.499823 0.335817 0.555808
7 1 0.660635 0.425301 0.666206
8 1 0.783337 0.456991 0.778266
9 1 0.79425 0.501516 0.907339
10 1 0.806165 0.577058 0.998839
ITEM: TIMESTEP
29000
ITEM: NUMBER OF ATOMS
10
ITEM: BOX BOUNDS pp pp pp
3.0000000000000000e+00 8.0000000000000000e+00
-4.0000000000000000e+00 0.0000000000000000e+00
-7.0000000000000000e+00 3.0000000000000000e+00
ITEM: ATOMS id type xs ys zs
1 1 0.134415 0.095131 0.0839478
2 1 0.171846 0.138208 0.188649
3 1 0.225196 0.190333 0.284438
4 1 0.334973 0.241511 0.369428
5 1 0.453194 0.270684 0.462243
6 1 0.499823 0.335817 0.556808
7 1 0.660635 0.425301 0.667206
8 1 0.783337 0.456991 0.779266
9 1 0.79425 0.501516 0.908339
10 1 0.806165 0.577058 0.999839
ITEM: TIMESTEP
30000
ITEM: NUMBER OF ATOMS
10
ITEM: BOX BOUNDS pp pp pp
3.0000000000000000e+00 8.0000000000000000e+00
-4.0000000000000000e+00 0.0000000000000000e+00
-7.0000000000000000e+00 3.0000000000000000e+00
ITEM: ATOMS id type xs ys zs
1 1 0.134415 0.095131 0.0849478
2 1 0.171846 0.138208 0.189649
3 1 0.225196 0.190333 0.285438
4 1 0.334973 0.241511 0.370428
5 1 0.453194 0.270684 0.463243
6 1 0.499823 0.335817 0.557808
7 1 0.660635 0.425301 0.668206
8 1 0.783337 0.456991 0.780266
9 1 0.79425 0.501516 0.909339
10 1 0.806165 0.577058 1.00084
ITEM: TIMESTEP
31000
ITEM: NUMBER OF ATOMS
10
ITEM: BOX BOUNDS pp pp pp
3.0000000000000000e+00 8.0000000000000000e+00
-4.0000000000000000e+00 0.0000000000000000e+00
-7.0000000000000000e+00 3.0000000000000000e+00
ITEM: ATOMS id type xs ys zs
1 1 0.134415 0.095131 0.0859478
2 1 0.171846 0.138208 0.190649
3 1 0.225196 0.190333 0.286438
4 1 0.334973 0.241511 0.371428
5 1 0.453194 0.270684 0.464243
6 1 0.499823 0.335817 0.558808
7 1 0.660635 0.425301 0.669206
8 1 0.783337 0.456991 0.781266
9 1 0.79425 0.501516 0.910339
10 1 0.806165 0.577058 1.00184
ITEM: TIMESTEP
32000
ITEM: NUMBER OF ATOMS
10
ITEM: BOX BOUNDS pp pp pp
3.0000000000000000e+00 8.0000000000000000e+00
-4.0000000000000000e+00 0.0000000000000000e+00
-7.0000000000000000e+00 3.0000000000000000e+00
ITEM: ATOMS id type xs ys zs
1 1 0.134415 0.095131 0.0869478
2 1 0.171846 0.138208 0.191649
3 1 0.225196 0.190333 0.287438
4 1 0.334973 0.241511 0.372428
5 1 0.453194 0.270684 0.465243
6 1 0.499823 0.335817 0.559808
7 1 0.660635 0.425301 0.670206
8 1 0.783337 0.456991 0.782266
9 1 0.79425 0.501516 0.911339
10 1 0.806165 0.577058 1.00284
ITEM: TIMESTEP
33000
ITEM: NUMBER OF ATOMS
10
ITEM: BOX BOUNDS pp pp pp
3.0000000000000000e+00 8.0000000000000000e+00
-4.0000000000000000e+00 0.0000000000000000e+00
-7.0000000000000000e+00 3.0000000000000000e+00
ITEM: ATOMS id type xs ys zs
1 1 0.134415 0.095131 0.0879478
2 1 0.171846 0.138208 0.192649
3 1 0.225196 0.190333 0.288438
4 1 0.334973 0.241511 0.373428
5 1 0.453194 0.270684 0.466243
6 1 0.499823 0.335817 0.560808
7 1 0.660635 0.425301 0.671206
8 1 0.783337 0.456991 0.783266
9 1 0.79425 0.501516 0.912339
10 1 0.806165 0.577058 1.00384
ITEM: TIMESTEP
34000
ITEM: NUMBER OF ATOMS
10
ITEM: BOX BOUNDS pp pp pp
3.0000000000000000e+00 8.0000000000000000e+00
-4.0000000000000000e+00 0.0000000000000000e+00
-7.0000000000000000e+00 3.0000000000000000e+00
ITEM: ATOMS id type xs ys zs
1 1 0.134415 0.095131 0.0889478
2 1 0.171846 0.138208 0.193649
3 1 0.225196 0.190333 0.289438
4 1 0.334973 0.241511 0.374428
5 1 0.453194 0.270684 0.467243
6 1 0.499823 0.335817 0.561808
7 1 0.660635 0.425301 0.672206
8 1 0.783337 0.456991 0.784266
9 1 0.79425 0.501516 0.913339
10 1 0.806165 0.577058 1.00484
ITEM: TIMESTEP
35000
ITEM: NUMBER OF ATOMS
10
ITEM: BOX BOUNDS pp pp pp
3.0000000000000000e+00 8.0000000000000000e+00
-4.0000000000000000e+00 0.0000000000000000e+00
-7.0000000000000000e+00 3.0000000000000000e+00
ITEM: ATOMS id type xs ys zs
1 1 0.134415 0.095131 0.0899478
2 1 0.171846 0.138208 0.194649
3 1 0.225196 0.190333 0.290438
4 1 0.334973 0.241511 0.375428
5 1 0.453194 0.270684 0.468243
6 1 0.499823 0.335817 0.562808
7 1 0.660635 0.425301 0.673206
8 1 0.783337 0.456991 0.785266
9 1 0.79425 0.501516 0.914339
10 1 0.806165 0.577058 1.00584
ITEM: TIMESTEP
36000
ITEM: NUMBER OF ATOMS
10
ITEM: BOX BOUNDS pp pp pp
3.0000000000000000e+00 8.0000000000000000e+00
-4.0000000000000000e+00 0.0000000000000000e+00
-7.0000000000000000e+00 3.0000000000000000e+00
ITEM: ATOMS id type xs ys zs
1 1 0.134415 0.095131 0.0909478
2 1 0.171846 0.138208 0.195649
3 1 0.225196 0.190333 0.291438
4 1 0.334973 0.241511 0.376428
5 1 0.453194 0.270684 0.469243
6 1 0.499823 0.335817 0.563808
7 1 0.660635 0.425301 0.674206
8 1 0.783337 0.456991 0.786266
9 1 0.79425 0.501516 0.915339
10 1 0.806165 0.577058 1.00684
ITEM: TIMESTEP
37000
ITEM: NUMBER OF ATOMS
10
ITEM: BOX BOUNDS pp pp pp
3.0000000000000000e+00 8.0000000000000000e+00
-4.0000000000000000e+00 0.0000000000000000e+00
-7.0000000000000000e+00 3.0000000000000000e+00
ITEM: ATOMS id type xs ys zs
1 1 0.134415 0.095131 0.0919478
2 1 0.171846 0.138208 0.196649
3 1 0.225196 0.190333 0.292438
4 1 0.334973 0.241511 0.377428
5 1 0.453194 0.270684 0.470243
6 1 0.499823 0.335817 0.564808
7 1 0.660635 0.425301 0.675206
8 1 0.783337 0.456991 0.787266
9 1 0.79425 0.501516 0.916339
10 1 0.806165 0.577058 1.00784
ITEM: TIMESTEP
38000
ITEM: NUMBER OF ATOMS
10
ITEM: BOX BOUNDS pp pp pp
3.0000000000000000e+00 8.0000000000000000e+00
-4.0000000000000000e+00 0.0000000000000000e+00
-7.0000000000000000e+00 3.0000000000000000e+00
ITEM: ATOMS id type xs ys zs
1 1 0.134415 0.095131 0.0929478
2 1 0.171846 0.138208 0.197649
3 1 0.225196 0.190333 0.293438
4 1 0.334973 0.241511 0.378428
5 1 0.453194 0.270684 0.471243
6 1 0.499823 0.335817 0.565808
7 1 0.660635 0.425301 0.676206
8 1 0.783337 0.456991 0.788266
9 1 0.79425 0.501516 0.917339
10 1 0.806165 0.577058 1.00884
ITEM: TIMESTEP
39000
ITEM: NUMBER OF ATOMS
10
ITEM: BOX BOUNDS pp pp pp
3.0000000000000000e+00 8.0000000000000000e+00
-4.0000000000000000e+00 0.0000000000000000e+00
-7.0000000000000000e+00 3.0000000000000000e+00
ITEM: ATOMS id type xs ys zs
1 1 0.134415 0.095131 0.0939478
2 1 0.171846 0.138208 0.198649
3 1 0.225196 0.190333 0.294438
4 1 0.334973 0.241511 0.379428
5 1 0.453194 0.270684 0.472243
6 1 0.499823 0.335817 0.566808
7 1 0.660635 0.425301 0.677206
8 1 0.783337 0.456991 0.789266
9 1 0.79425 0.501516 0.918339
10 1 0.806165 0.577058 1.00984
ITEM: TIMESTEP
40000
ITEM: NUMBER OF ATOMS
10
ITEM: BOX BOUNDS pp pp pp
3.0000000000000000e+00 8.0000000000000000e+00
-4.0000000000000000e+00 0.0000000000000000e+00
-7.0000000000000000e+00 3.0000000000000000e+00
ITEM: ATOMS id type xs ys zs
1 1 0.134415 0.095131 0.0949478
2 1 0.171846 0.138208 0.199649
3 1 0.225196 0.190333 0.295438
4 1 0.334973 0.241511 0.380428
5 1 0.453194 0.270684 0.473243
6 1 0.499823 0.335817 0.567808
7 1 0.660635 0.425301 0.678206
8 1 0.783337 0.456991 0.790266
9 1 0.79425 0.501516 0.919339
10 1 0.806165 0.577058 1.01084
ITEM: TIMESTEP
41000
ITEM: NUMBER OF ATOMS
10
ITEM: BOX BOUNDS pp pp pp
3.0000000000000000e+00 8.0000000000000000e+00
-4.0000000000000000e+00 0.0000000000000000e+00
-7.0000000000000000e+00 3.0000000000000000e+00
ITEM: ATOMS id type xs ys zs
1 1 0.134415 0.095131 0.0959478
2 1 0.171846 0.138208 0.200649
3 1 0.225196 0.190333 0.296438
4 1 0.334973 0.241511 0.381428
5 1 0.453194 0.270684 0.474243
6 1 0.499823 0.335817 0.568808
7 1 0.660635 0.425301 0.679206
8 1 0.783337 0.456991 0.791266
9 1 0.79425 0.501516 0.920339
10 1 0.806165 0.577058 1.01184
ITEM: TIMESTEP
42000
ITEM: NUMBER OF ATOMS
10
ITEM: BOX BOUNDS pp pp pp
3.0000000000000000e+00 8.0000000000000000e+00
-4.0000000000000000e+00 0.0000000000000000e+00
-7.0000000000000000e+00 3.0000000000000000e+00
ITEM: ATOMS id type xs ys zs
1 1 0.134415 0.095131 0.0969478
2 1 0.171846 0.138208 0.201649
3 1 0.225196 0.190333 0.297438
4 1 0.334973 0.241511 0.382428
5 1 0.453194 0.270684 0.475243
6 1 0.499823 0.335817 0.569808
7 1 0.660635 0.425301 0.680206
8 1 0.783337 0.456991 0.792266
9 1 0.79425 0.501516 0.921339
10 1 0.806165 0.577058 1.01284
ITEM: TIMESTEP
43000
ITEM: NUMBER OF ATOMS
10
ITEM: BOX BOUNDS pp pp pp
3.0000000000000000e+00 8.0000000000000000e+00
-4.0000000000000000e+00 0.0000000000000000e+00
-7.0000000000000000e+00 3.0000000000000000e+00
ITEM: ATOMS id type xs ys zs
1 1 0.134415 0.095131 0.0979478
2 1 0.171846 0.138208 0.202649
3 1 0.225196 0.190333 0.298438
4 1 0.334973 0.241511 0.383428
5 1 0.453194 0.270684 0.476243
6 1 0.499823 0.335817 0.570808
7 1 0.660635 0.425301 0.681206
8 1 0.783337 0.456991 0.793266
9 1 0.79425 0.501516 0.922339
10 1 0.806165 0.577058 1.01384
ITEM: TIMESTEP
44000
ITEM: NUMBER OF ATOMS
10
ITEM: BOX BOUNDS pp pp pp
3.0000000000000000e+00 8.0000000000000000e+00
-4.0000000000000000e+00 0.0000000000000000e+00
-7.0000000000000000e+00 3.0000000000000000e+00
ITEM: ATOMS id type xs ys zs
1 1 0.134415 0.095131 0.0989478
2 1 0.171846 0.138208 0.203649
3 1 0.225196 0.190333 0.299438
4 1 0.334973 0.241511 0.384428
5 1 0.453194 0.270684 0.477243
6 1 0.499823 0.335817 0.571808
7 1 0.660635 0.425301 0.682206
8 1 0.783337 0.456991 0.794266
9 1 0.79425 0.501516 0.923339
10 1 0.806165 0.577058 1.01484
ITEM: TIMESTEP
45000
ITEM: NUMBER OF ATOMS
10
ITEM: BOX BOUNDS pp pp pp
3.0000000000000000e+00 8.0000000000000000e+00
-4.0000000000000000e+00 0.0000000000000000e+00
-7.0000000000000000e+00 3.0000000000000000e+00
ITEM: ATOMS id type xs ys zs
1 1 0.134415 0.095131 0.0999478
2 1 0.171846 0.138208 0.204649
3 1 0.225196 0.190333 0.300438
4 1 0.334973 0.241511 0.385428
5 1 0.453194 0.270684 0.478243
6 1 0.499823 0.335817 0.572808
7 1 0.660635 0.425301 0.683206
8 1 0.783337 0.456991 0.795266
9 1 0.79425 0.501516 0.924339
10 1 0.806165 0.577058 1.01584
ITEM: TIMESTEP
46000
ITEM: NUMBER OF ATOMS
10
ITEM: BOX BOUNDS pp pp pp
3.0000000000000000e+00 8.0000000000000000e+00
-4.0000000000000000e+00 0.0000000000000000e+00
-7.0000000000000000e+00 3.0000000000000000e+00
ITEM: ATOMS id type xs ys zs
1 1 0.134415 0.095131 0.100948
2 1 0.171846 0.138208 0.205649
3 1 0.225196 0.190333 0.301438
4 1 0.334973 0.241511 0.386428
5 1 0.453194 0.270684 0.479243
6 1 0.499823 0.335817 0.573808
7 1 0.660635 0.425301 0.684206
8 1 0.783337 0.456991 0.796266
9 1 0.79425 0.501516 0.925339
10 1 0.806165 0.577058 1.01684
ITEM: TIMESTEP
47000
ITEM: NUMBER OF ATOMS
10
ITEM: BOX BOUNDS pp pp pp
3.0000000000000000e+00 8.0000000000000000e+00
-4.0000000000000000e+00 0.0000000000000000e+00
-7.0000000000000000e+00 3.0000000000000000e+00
ITEM: ATOMS id type xs ys zs
1 1 0.134415 0.095131 0.101948
2 1 0.171846 0.138208 0.206649
3 1 0.225196 0.190333 0.302438
4 1 0.334973 0.241511 0.387428
5 1 0.453194 0.270684 0.480243
6 1 0.499823 0.335817 0.574808
7 1 0.660635 0.425301 0.685206
8 1 0.783337 0.456991 0.797266
9 1 0.79425 0.501516 0.926339
10 1 0.806165 0.577058 1.01784
ITEM: TIMESTEP
48000
ITEM: NUMBER OF ATOMS
10
ITEM: BOX BOUNDS pp pp pp
3.0000000000000000e+00 8.0000000000000000e+00
-4.0000000000000000e+00 0.0000000000000000e+00
-7.0000000000000000e+00 3.0000000000000000e+00
ITEM: ATOMS id type xs ys zs
1 1 0.134415 0.095131 0.102948
2 1 0.171846 0.138208 0.207649
3 1 0.225196 0.190333 0.303438
4 1 0.334973 0.241511 0.388428
5 1 0.453194 0.270684 0.481243
6 1 0.499823 0.335817 0.575808
7 1 0.660635 0.425301 0.686206
8 1 0.783337 0.456991 0.798266
9 1 0.79425 0.501516 0.927339
10 1 0.806165 0.577058 1.01884
ITEM: TIMESTEP
49000
ITEM: NUMBER OF ATOMS
10
ITEM: BOX BOUNDS pp pp pp
3.0000000000000000e+00 8.0000000000000000e+00
-4.0000000000000000e+00 0.0000000000000000e+00
-7.0000000000000000e+00 3.0000000000000000e+00
ITEM: ATOMS id type xs ys zs
1 1 0.134415 0.095131 0.103948
2 1 0.171846 0.138208 0.208649
3 1 0.225196 0.190333 0.304438
4 1 0.334973 0.241511 0.389428
5 1 0.453194 0.270684 0.482243
6 1 0.499823 0.335817 0.576808
7 1 0.660635 0.425301 0.687206
8 1 0.783337 0.456991 0.799266
9 1 0.79425 0.501516 0.928339
10 1 0.806165 0.577058 1.01984
ITEM: TIMESTEP
50000
ITEM: NUMBER OF ATOMS
10
ITEM: BOX BOUNDS pp pp pp
3.0000000000000000e+00 8.0000000000000000e+00
-4.0000000000000000e+00 0.0000000000000000e+00
-7.0000000000000000e+00 3.0000000000000000e+00
ITEM: ATOMS id type xs ys zs
1 1 0.134415 0.095131 0.104948
2 1 0.171846 0.138208 0.209649
3 1 0.225196 0.190333 0.305438
4 1 0.334973 0.241511 0.390428
5 1 0.453194 0.270684 0.483243
6 1 0.499823 0.335817 0.577808
7 1 0.660635 0.425301 0.688206
8 1 0.783337 0.456991 0.800266
9 1 0.79425 0.501516 0.929339
10 1 0.806165 0.577058 1.02084
ITEM: TIMESTEP
51000
ITEM: NUMBER OF ATOMS
10
ITEM: BOX BOUNDS pp pp pp
3.0000000000000000e+00 8.0000000000000000e+00
-4.0000000000000000e+00 0.0000000000000000e+00
-7.0000000000000000e+00 3.0000000000000000e+00
ITEM: ATOMS id type xs ys zs
1 1 0.134415 0.095131 0.105948
2 1 0.171846 0.138208 0.210649
3 1 0.225196 0.190333 0.306438
4 1 0.334973 0.241511 0.391428
5 1 0.453194 0.270684 0.484243
6 1 0.499823 0.335817 0.578808
7 1 0.660635 0.425301 0.689206
8 1 0.783337 0.456991 0.801266
9 1 0.79425 0.501516 0.930339
10 1 0.806165 0.577058 1.02184
ITEM: TIMESTEP
52000
ITEM: NUMBER OF ATOMS
10
ITEM: BOX BOUNDS pp pp pp
3.0000000000000000e+00 8.0000000000000000e+00
-4.0000000000000000e+00 0.0000000000000000e+00
-7.0000000000000000e+00 3.0000000000000000e+00
ITEM: ATOMS id type xs ys zs
1 1 0.134415 0.095131 0.106948
2 1 0.171846 0.138208 0.211649
3 1 0.225196 0.190333 0.307438
4 1 0.334973 0.241511 0.392428
5 1 0.453194 0.270684 0.485243
6 1 0.499823 0.335817 0.579808
7 1 0.660635 0.425301 0.690206
8 1 0.783337 0.456991 0.802266
9 1 0.79425 0.501516 0.931339
10 1 0.806165 0.577058 1.02284
ITEM: TIMESTEP
53000
ITEM: NUMBER OF ATOMS
10
ITEM: BOX BOUNDS pp pp pp
3.0000000000000000e+00 8.0000000000000000e+00
-4.0000000000000000e+00 0.0000000000000000e+00
-7.0000000000000000e+00 3.0000000000000000e+00
ITEM: ATOMS id type xs ys zs
1 1 0.134415 0.095131 0.107948
2 1 0.171846 0.138208 0.212649
3 1 0.225196 0.190333 0.308438
4 1 0.334973 0.241511 0.393428
5 1 0.453194 0.270684 0.486243
6 1 0.499823 0.335817 0.580808
7 1 0.660635 0.425301 0.691206
8 1 0.783337 0.456991 0.803266
9 1 0.79425 0.501516 0.932339
10 1 0.806165 0.577058 1.02384
ITEM: TIMESTEP
54000
ITEM: NUMBER OF ATOMS
10
ITEM: BOX BOUNDS pp pp pp
3.0000000000000000e+00 8.0000000000000000e+00
-4.0000000000000000e+00 0.0000000000000000e+00
-7.0000000000000000e+00 3.0000000000000000e+00