ITEM: TIMESTEP
0
ITEM: NUMBER OF ATOMS
10
ITEM: BOX BOUNDS pp pp pp
3.0000000000000000e+00 8.0000000000000000e+00
-4.0000000000000000e+00 0.0000000000000000e+00
-7.0000000000000000e+00 3.0000000000000000e+00
ITEM: ATOMS id type xs ys zs
1 1 0.134415 0.095131 0.0549478
2 1 0.171846 0.138208 0.159649
3 1 0.225196 0.190333 0.255438
4 1 0.334973 0.241511 0.340428
5 1 0.453194 0.270684 0.433243
6 1 0.499823 0.335817 0.527808
7 1 0.660635 0.425301 0.638206
8 1 0.783337 0.456991 0.750266
9 1 0.79425 0.501516 0.879339
10 1 0.806165 0.577058 0.970839
ITEM: TIMESTEP
1000
ITEM: NUMBER OF ATOMS
10
ITEM: BOX BOUNDS pp pp pp
3.0000000000000000e+00 8.0000000000000000e+00
-4.0000000000000000e+00 0.0000000000000000e+00
-7.0000000000000000e+00 3.0000000000000000e+00
ITEM: ATOMS id type xs ys zs
1 1 0.134236 0.0949255 0.0544478
2 1 0.171335 0.137739 0.15891
3 1 0.224781 0.190493 0.255823
4 1 0.335726 0.241939 0.341006
5 1 0.452885 0.269847 0.432179
6 1 0.500483 0.33674 0.529147
7 1 0.660635 0.425301 0.638206
8 1 0.783337 0.456991 0.750266
9 1 0.793931 0.499497 0.876894
10 1 0.806484 0.579077 0.973284
ITEM: TIMESTEP
2000
ITEM: NUMBER OF ATOMS
10
ITEM: BOX BOUNDS pp pp pp
3.0000000000000000e+00 8.0000000000000000e+00
-4.0000000000000000e+00 0.0000000000000000e+00
-7.0000000000000000e+00 3.0000000000000000e+00
ITEM: ATOMS id type xs ys zs
1 1 0.133689 0.0942939 0.0529078
2 1 0.170027 0.136544 0.157094
3 1 0.223469 0.190849 0.256742
4 1 0.337595 0.243101 0.342433
5 1 0.452582 0.267911 0.429932
6 1 0.502084 0.338986 0.532405
7 1 0.660635 0.425301 0.638206
8 1 0.783337 0.456991 0.750266
9 1 0.793263 0.49526 0.871761
10 1 0.807152 0.583314 0.978417
ITEM: TIMESTEP
3000
ITEM: NUMBER OF ATOMS
10
ITEM: BOX BOUNDS pp pp pp
3.0000000000000000e+00 8.0000000000000000e+00
-4.0000000000000000e+00 0.0000000000000000e+00
-7.0000000000000000e+00 3.0000000000000000e+00
ITEM: ATOMS id type xs ys zs
1 1 0.132761 0.0932197 0.0502758
2 1 0.168336 0.135017 0.154949
3 1 0.221206 0.191193 0.257795
4 1 0.339458 0.244682 0.343841
5 1 0.45363 0.265811 0.428227
6 1 0.504056 0.341761 0.536426
7 1 0.660635 0.425301 0.638206
8 1 0.783337 0.456991 0.750266
9 1 0.792537 0.49066 0.86619
10 1 0.807878 0.587913 0.983988
ITEM: TIMESTEP
4000
ITEM: NUMBER OF ATOMS
10
ITEM: BOX BOUNDS pp pp pp
3.0000000000000000e+00 8.0000000000000000e+00
-4.0000000000000000e+00 0.0000000000000000e+00
-7.0000000000000000e+00 3.0000000000000000e+00
ITEM: ATOMS id type xs ys zs
1 1 0.131485 0.091737 0.0466209
2 1 0.166545 0.133425 0.152959
3 1 0.218001 0.191383 0.258703
4 1 0.34008 0.24641 0.34432
5 1 0.457277 0.26415 0.428401
6 1 0.506058 0.344579 0.54051
7 1 0.660635 0.425301 0.638206
8 1 0.783336 0.456988 0.750255
9 1 0.791813 0.486064 0.86063
10 1 0.808603 0.592513 0.989559
ITEM: TIMESTEP
5000
ITEM: NUMBER OF ATOMS
10
ITEM: BOX BOUNDS pp pp pp
3.0000000000000000e+00 8.0000000000000000e+00
-4.0000000000000000e+00 0.0000000000000000e+00
-7.0000000000000000e+00 3.0000000000000000e+00
ITEM: ATOMS id type xs ys zs
1 1 0.129946 0.0899422 0.0421709
2 1 0.164783 0.131884 0.151288
3 1 0.213799 0.191278 0.259224
4 1 0.339435 0.24831 0.343866
5 1 0.463424 0.262872 0.430371
6 1 0.50806 0.347397 0.544593
7 1 0.660635 0.425301 0.638206
8 1 0.783297 0.45686 0.749751
9 1 0.791125 0.481593 0.855562
10 1 0.809329 0.597113 0.995131
ITEM: TIMESTEP
6000
ITEM: NUMBER OF ATOMS
10
ITEM: BOX BOUNDS pp pp pp
3.0000000000000000e+00 8.0000000000000000e+00
-4.0000000000000000e+00 0.0000000000000000e+00
-7.0000000000000000e+00 3.0000000000000000e+00
ITEM: ATOMS id type xs ys zs
1 1 0.128291 0.0880069 0.0373574
2 1 0.163117 0.13046 0.149938
3 1 0.20846 0.190671 0.259007
4 1 0.33848 0.250558 0.343165
5 1 0.471037 0.261773 0.433369
6 1 0.510062 0.350216 0.548677
7 1 0.660635 0.425301 0.638206
8 1 0.783166 0.456439 0.747983
9 1 0.790531 0.477413 0.851759
10 1 0.810054 0.601712 1.0007
ITEM: TIMESTEP
7000
ITEM: NUMBER OF ATOMS
10
ITEM: BOX BOUNDS pp pp pp
3.0000000000000000e+00 8.0000000000000000e+00
-4.0000000000000000e+00 0.0000000000000000e+00
-7.0000000000000000e+00 3.0000000000000000e+00
ITEM: ATOMS id type xs ys zs
1 1 0.126634 0.0860698 0.032539
2 1 0.161453 0.129037 0.148592
3 1 0.202148 0.189616 0.25816
4 1 0.338068 0.253212 0.342801
5 1 0.47908 0.260715 0.436661
6 1 0.512064 0.353034 0.552761
7 1 0.660635 0.425301 0.638206
8 1 0.782912 0.455671 0.744493
9 1 0.790059 0.473582 0.849678
10 1 0.81078 0.606312 1.00627
ITEM: TIMESTEP
8000
ITEM: NUMBER OF ATOMS
10
ITEM: BOX BOUNDS pp pp pp
3.0000000000000000e+00 8.0000000000000000e+00
-4.0000000000000000e+00 0.0000000000000000e+00
-7.0000000000000000e+00 3.0000000000000000e+00
ITEM: ATOMS id type xs ys zs
1 1 0.124976 0.0841327 0.0277207
2 1 0.159789 0.127615 0.147247
3 1 0.195324 0.188322 0.256991
4 1 0.338168 0.256104 0.342758
5 1 0.487124 0.259657 0.439954
6 1 0.514066 0.355852 0.556844
7 1 0.660635 0.425301 0.638206
8 1 0.782561 0.454656 0.739568
9 1 0.789685 0.469997 0.849031
10 1 0.811505 0.610911 1.01184
ITEM: TIMESTEP
9000
ITEM: NUMBER OF ATOMS
10
ITEM: BOX BOUNDS pp pp pp
3.0000000000000000e+00 8.0000000000000000e+00
-4.0000000000000000e+00 0.0000000000000000e+00
-7.0000000000000000e+00 3.0000000000000000e+00
ITEM: ATOMS id type xs ys zs
1 1 0.123319 0.0821955 0.0229024
2 1 0.158125 0.126193 0.145901
3 1 0.188484 0.187021 0.255811
4 1 0.338284 0.259004 0.342725
5 1 0.495167 0.258599 0.443246
6 1 0.515824 0.358556 0.560795
7 1 0.660878 0.425415 0.638338
8 1 0.782163 0.453538 0.733941
9 1 0.789357 0.466516 0.849087
10 1 0.812231 0.615511 1.01742
ITEM: TIMESTEP
10000
ITEM: NUMBER OF ATOMS
10
ITEM: BOX BOUNDS pp pp pp
3.0000000000000000e+00 8.0000000000000000e+00
-4.0000000000000000e+00 0.0000000000000000e+00
-7.0000000000000000e+00 3.0000000000000000e+00
ITEM: ATOMS id type xs ys zs
1 1 0.121662 0.0802584 0.018084
2 1 0.156461 0.124771 0.144555
3 1 0.181644 0.18572 0.254632
4 1 0.3384 0.261904 0.342692
5 1 0.503211 0.257542 0.446539
6 1 0.516587 0.360803 0.564215
7 1 0.661946 0.425948 0.63887
8 1 0.781934 0.452451 0.728385
9 1 0.789033 0.463042 0.849203
10 1 0.812957 0.620111 1.02299
ITEM: TIMESTEP
11000
ITEM: NUMBER OF ATOMS
10
ITEM: BOX BOUNDS pp pp pp
3.0000000000000000e+00 8.0000000000000000e+00
-4.0000000000000000e+00 0.0000000000000000e+00
-7.0000000000000000e+00 3.0000000000000000e+00
ITEM: ATOMS id type xs ys zs
1 1 0.120005 0.0783212 0.0132657
2 1 0.154796 0.123348 0.14321
3 1 0.174804 0.184419 0.253453
4 1 0.338516 0.264804 0.342658
5 1 0.511254 0.256484 0.449832
6 1 0.515904 0.362403 0.566895
7 1 0.663392 0.426894 0.639354
8 1 0.782771 0.451597 0.723619
9 1 0.788709 0.459569 0.849319
10 1 0.813682 0.62471 1.02856
ITEM: TIMESTEP
12000
ITEM: NUMBER OF ATOMS
10
ITEM: BOX BOUNDS pp pp pp
3.0000000000000000e+00 8.0000000000000000e+00
-4.0000000000000000e+00 0.0000000000000000e+00
-7.0000000000000000e+00 3.0000000000000000e+00
ITEM: ATOMS id type xs ys zs
1 1 0.118348 0.0763841 0.00844738
2 1 0.153132 0.121926 0.141864
3 1 0.167963 0.183118 0.252274
4 1 0.338632 0.267704 0.342625
5 1 0.519298 0.255426 0.453124
6 1 0.51352 0.363258 0.56874
7 1 0.664331 0.428132 0.63912
8 1 0.785817 0.451196 0.720404
9 1 0.788385 0.456095 0.849434
10 1 0.814408 0.62931 1.03413
ITEM: TIMESTEP
13000
ITEM: NUMBER OF ATOMS
10
ITEM: BOX BOUNDS pp pp pp
3.0000000000000000e+00 8.0000000000000000e+00
-4.0000000000000000e+00 0.0000000000000000e+00
-7.0000000000000000e+00 3.0000000000000000e+00
ITEM: ATOMS id type xs ys zs
1 1 0.11669 0.074447 0.00362905
2 1 0.151468 0.120504 0.140519
3 1 0.161123 0.181816 0.251094
4 1 0.338747 0.270604 0.342592
5 1 0.527341 0.254368 0.456417
6 1 0.509326 0.363333 0.569741
7 1 0.664144 0.429593 0.637766
8 1 0.791798 0.451352 0.719154
9 1 0.788061 0.452622 0.84955
10 1 0.815133 0.63391 1.0397
ITEM: TIMESTEP
14000
ITEM: NUMBER OF ATOMS
10
ITEM: BOX BOUNDS pp pp pp
3.0000000000000000e+00 8.0000000000000000e+00
-4.0000000000000000e+00 0.0000000000000000e+00
-7.0000000000000000e+00 3.0000000000000000e+00
ITEM: ATOMS id type xs ys zs
1 1 0.115033 0.0725098 -0.00118929
2 1 0.149804 0.119082 0.139173
3 1 0.154283 0.180515 0.249915
4 1 0.338863 0.273505 0.342559
5 1 0.535385 0.25331 0.45971
6 1 0.503304 0.362626 0.569938
7 1 0.663458 0.431436 0.635725
8 1 0.800107 0.451908 0.719395
9 1 0.787737 0.449148 0.849666
10 1 0.815859 0.638509 1.04527
ITEM: TIMESTEP
15000
ITEM: NUMBER OF ATOMS
10
ITEM: BOX BOUNDS pp pp pp
3.0000000000000000e+00 8.0000000000000000e+00
-4.0000000000000000e+00 0.0000000000000000e+00
-7.0000000000000000e+00 3.0000000000000000e+00
ITEM: ATOMS id type xs ys zs
1 1 0.113376 0.0705727 -0.00600762
2 1 0.14814 0.11766 0.137827
3 1 0.147443 0.179214 0.248736
4 1 0.338979 0.276405 0.342526
5 1 0.543429 0.252253 0.463002
6 1 0.495648 0.361217 0.569463
7 1 0.663214 0.433799 0.633622
8 1 0.809607 0.452647 0.72037
9 1 0.787413 0.445674 0.849781
10 1 0.816584 0.643109 1.05084
ITEM: TIMESTEP
16000
ITEM: NUMBER OF ATOMS
10
ITEM: BOX BOUNDS pp pp pp
3.0000000000000000e+00 8.0000000000000000e+00
-4.0000000000000000e+00 0.0000000000000000e+00
-7.0000000000000000e+00 3.0000000000000000e+00
ITEM: ATOMS id type xs ys zs
1 1 0.111719 0.0686355 -0.010826
2 1 0.146476 0.116237 0.136482
3 1 0.140603 0.177913 0.247557
4 1 0.339095 0.279305 0.342493
5 1 0.551472 0.251195 0.466295
6 1 0.486842 0.35931 0.568544
7 1 0.663921 0.436632 0.631843
8 1 0.819307 0.453413 0.721465
9 1 0.787088 0.442201 0.849897
10 1 0.81731 0.647708 1.05641
ITEM: TIMESTEP
17000
ITEM: NUMBER OF ATOMS
10
ITEM: BOX BOUNDS pp pp pp
3.0000000000000000e+00 8.0000000000000000e+00
-4.0000000000000000e+00 0.0000000000000000e+00
-7.0000000000000000e+00 3.0000000000000000e+00
ITEM: ATOMS id type xs ys zs
1 1 0.110062 0.0666984 -0.0156443
2 1 0.144812 0.114815 0.135136
3 1 0.133763 0.176612 0.246377
4 1 0.339211 0.282205 0.34246
5 1 0.559516 0.250137 0.469588
6 1 0.477769 0.357287 0.567526
7 1 0.664894 0.43958 0.630161
8 1 0.829007 0.45418 0.72256
9 1 0.786764 0.438727 0.850013
10 1 0.818035 0.652308 1.06199
ITEM: TIMESTEP
18000
ITEM: NUMBER OF ATOMS
10
ITEM: BOX BOUNDS pp pp pp
3.0000000000000000e+00 8.0000000000000000e+00
-4.0000000000000000e+00 0.0000000000000000e+00
-7.0000000000000000e+00 3.0000000000000000e+00
ITEM: ATOMS id type xs ys zs
1 1 0.108404 0.0647613 -0.0204626
2 1 0.143148 0.113393 0.133791
3 1 0.126923 0.175311 0.245198
4 1 0.339327 0.285105 0.342427
5 1 0.567559 0.249079 0.47288
6 1 0.468697 0.355264 0.566509
7 1 0.665866 0.442529 0.62848
8 1 0.838707 0.454946 0.723656
9 1 0.78644 0.435254 0.850128
10 1 0.818761 0.656908 1.06756
ITEM: TIMESTEP
19000
ITEM: NUMBER OF ATOMS
10
ITEM: BOX BOUNDS pp pp pp
3.0000000000000000e+00 8.0000000000000000e+00
-4.0000000000000000e+00 0.0000000000000000e+00
-7.0000000000000000e+00 3.0000000000000000e+00
ITEM: ATOMS id type xs ys zs
1 1 0.106747 0.0628241 -0.025281
2 1 0.141484 0.111971 0.132445
3 1 0.120083 0.174009 0.244019
4 1 0.339443 0.288005 0.342394
5 1 0.575603 0.248021 0.476173
6 1 0.459625 0.353242 0.565492
7 1 0.666839 0.445478 0.626799
8 1 0.848407 0.455713 0.724751
9 1 0.786116 0.43178 0.850244
10 1 0.819486 0.661507 1.07313
ITEM: TIMESTEP
20000
ITEM: NUMBER OF ATOMS
10
ITEM: BOX BOUNDS pp pp pp
3.0000000000000000e+00 8.0000000000000000e+00
-4.0000000000000000e+00 0.0000000000000000e+00
-7.0000000000000000e+00 3.0000000000000000e+00
ITEM: ATOMS id type xs ys zs
1 1 0.10509 0.060887 -0.0300993
2 1 0.13982 0.110548 0.131099
3 1 0.113243 0.172708 0.24284
4 1 0.339559 0.290905 0.342361
5 1 0.583646 0.246963 0.479465
6 1 0.450553 0.351219 0.564474
7 1 0.667812 0.448426 0.625118
8 1 0.858107 0.456479 0.725846
9 1 0.785792 0.428306 0.85036
10 1 0.820212 0.666107 1.0787
ITEM: TIMESTEP
21000
ITEM: NUMBER OF ATOMS
10
ITEM: BOX BOUNDS pp pp pp
3.0000000000000000e+00 8.0000000000000000e+00
-4.0000000000000000e+00 0.0000000000000000e+00
-7.0000000000000000e+00 3.0000000000000000e+00
ITEM: ATOMS id type xs ys zs
1 1 0.103433 0.0589499 -0.0349176
2 1 0.138155 0.109126 0.129754
3 1 0.106403 0.171407 0.24166
4 1 0.339675 0.293805 0.342328
5 1 0.59169 0.245906 0.482758
6 1 0.441481 0.349196 0.563457
7 1 0.668785 0.451375 0.623437
8 1 0.867807 0.457246 0.726941
9 1 0.785468 0.424833 0.850475
10 1 0.820937 0.670706 1.08427
ITEM: TIMESTEP
22000
ITEM: NUMBER OF ATOMS
10
ITEM: BOX BOUNDS pp pp pp
3.0000000000000000e+00 8.0000000000000000e+00
-4.0000000000000000e+00 0.0000000000000000e+00
-7.0000000000000000e+00 3.0000000000000000e+00
ITEM: ATOMS id type xs ys zs
1 1 0.101776 0.0570127 -0.039736
2 1 0.136491 0.107704 0.128408
3 1 0.0995624 0.170106 0.240481
4 1 0.339791 0.296705 0.342294
5 1 0.599734 0.244848 0.486051
6 1 0.432408 0.347174 0.562439
7 1 0.669757 0.454323 0.621755
8 1 0.877507 0.458012 0.728036
9 1 0.785144 0.421359 0.850591
10 1 0.821663 0.675306 1.08984
ITEM: TIMESTEP
23000
ITEM: NUMBER OF ATOMS
10
ITEM: BOX BOUNDS pp pp pp
3.0000000000000000e+00 8.0000000000000000e+00
-4.0000000000000000e+00 0.0000000000000000e+00
-7.0000000000000000e+00 3.0000000000000000e+00
ITEM: ATOMS id type xs ys zs
1 1 0.100118 0.0550756 -0.0445543
2 1 0.134827 0.106282 0.127063
3 1 0.0927223 0.168805 0.239302
4 1 0.339907 0.299605 0.342261
5 1 0.607777 0.24379 0.489343
6 1 0.423336 0.345151 0.561422
7 1 0.67073 0.457272 0.620074
8 1 0.887207 0.458779 0.729132
9 1 0.784819 0.417886 0.850707
10 1 0.822388 0.679906 1.09541
ITEM: TIMESTEP
24000
ITEM: NUMBER OF ATOMS
10
ITEM: BOX BOUNDS pp pp pp
3.0000000000000000e+00 8.0000000000000000e+00
-4.0000000000000000e+00 0.0000000000000000e+00
-7.0000000000000000e+00 3.0000000000000000e+00
ITEM: ATOMS id type xs ys zs
1 1 0.0984612 0.0531384 -0.0493726
2 1 0.133163 0.104859 0.125717
3 1 0.0858822 0.167504 0.238122
4 1 0.340022 0.302505 0.342228
5 1 0.615821 0.242732 0.492636
6 1 0.414264 0.343128 0.560405
7 1 0.671703 0.46022 0.618393
8 1 0.896907 0.459545 0.730227
9 1 0.784495 0.414412 0.850822
10 1 0.823114 0.684505 1.10099
ITEM: TIMESTEP
25000
ITEM: NUMBER OF ATOMS
10
ITEM: BOX BOUNDS pp pp pp
3.0000000000000000e+00 8.0000000000000000e+00
-4.0000000000000000e+00 0.0000000000000000e+00
-7.0000000000000000e+00 3.0000000000000000e+00
ITEM: ATOMS id type xs ys zs
1 1 0.096804 0.0512013 -0.054191
2 1 0.131499 0.103437 0.124371
3 1 0.0790421 0.166202 0.236943
4 1 0.340138 0.305405 0.342195
5 1 0.623864 0.241674 0.495929
6 1 0.405192 0.341105 0.559387
7 1 0.672675 0.463169 0.616712
8 1 0.906607 0.460312 0.731322
9 1 0.784171 0.410938 0.850938
10 1 0.82384 0.689105 1.10656
ITEM: TIMESTEP
26000
ITEM: NUMBER OF ATOMS
10
ITEM: BOX BOUNDS pp pp pp
3.0000000000000000e+00 8.0000000000000000e+00
-4.0000000000000000e+00 0.0000000000000000e+00
-7.0000000000000000e+00 3.0000000000000000e+00
ITEM: ATOMS id type xs ys zs
1 1 0.0951468 0.0492642 -0.0590093
2 1 0.129835 0.102015 0.123026
3 1 0.072202 0.164901 0.235764
4 1 0.340254 0.308305 0.342162
5 1 0.631908 0.240617 0.499221
6 1 0.396119 0.339083 0.55837
7 1 0.673648 0.466117 0.615031
8 1 0.916307 0.461078 0.732417
9 1 0.783847 0.407465 0.851054
10 1 0.824565 0.693704 1.11213
ITEM: TIMESTEP
27000
ITEM: NUMBER OF ATOMS
10
ITEM: BOX BOUNDS pp pp pp
3.0000000000000000e+00 8.0000000000000000e+00
-4.0000000000000000e+00 0.0000000000000000e+00
-7.0000000000000000e+00 3.0000000000000000e+00
ITEM: ATOMS id type xs ys zs
2 1 0.128171 0.100593 0.12168
3 1 0.0653619 0.1636 0.234585
10 1 0.825291 0.698304 0.117699
4 1 0.34037 0.311205 0.342129
5 1 0.639951 0.239559 0.502514
6 1 0.387047 0.33706 0.557353
7 1 0.674621 0.469066 0.61335
8 1 0.926007 0.461845 0.733513
1 1 0.0934896 0.047327 0.936172
9 1 0.783523 0.403991 0.851169
ITEM: TIMESTEP
28000
ITEM: NUMBER OF ATOMS
10
ITEM: BOX BOUNDS pp pp pp
3.0000000000000000e+00 8.0000000000000000e+00
-4.0000000000000000e+00 0.0000000000000000e+00
-7.0000000000000000e+00 3.0000000000000000e+00
ITEM: ATOMS id type xs ys zs
2 1 0.126507 0.0991704 0.120335
3 1 0.0585218 0.162299 0.233405
10 1 0.826016 0.702904 0.12327
4 1 0.340486 0.314106 0.342096
5 1 0.647995 0.238501 0.505807
6 1 0.377975 0.335037 0.556335
7 1 0.675594 0.472014 0.611668
8 1 0.935707 0.462611 0.734608
1 1 0.0918324 0.0453899 0.931354
9 1 0.783199 0.400518 0.851285
ITEM: TIMESTEP
29000
ITEM: NUMBER OF ATOMS
10
ITEM: BOX BOUNDS pp pp pp
3.0000000000000000e+00 8.0000000000000000e+00
-4.0000000000000000e+00 0.0000000000000000e+00
-7.0000000000000000e+00 3.0000000000000000e+00
ITEM: ATOMS id type xs ys zs
2 1 0.124843 0.0977481 0.118989
3 1 0.0516817 0.160998 0.232226
10 1 0.826742 0.707503 0.128842
4 1 0.340602 0.317006 0.342063
5 1 0.656039 0.237443 0.509099
6 1 0.368903 0.333014 0.555318
7 1 0.676566 0.474963 0.609987
8 1 0.945407 0.463378 0.735703
1 1 0.0901752 0.0434527 0.926536
9 1 0.782875 0.397044 0.8514
ITEM: TIMESTEP
30000
ITEM: NUMBER OF ATOMS
10
ITEM: BOX BOUNDS pp pp pp
3.0000000000000000e+00 8.0000000000000000e+00
-4.0000000000000000e+00 0.0000000000000000e+00
-7.0000000000000000e+00 3.0000000000000000e+00
ITEM: ATOMS id type xs ys zs
2 1 0.123179 0.0963259 0.117643
3 1 0.0448416 0.159696 0.231047
10 1 0.827467 0.712103 0.134413
4 1 0.340718 0.319906 0.34203
5 1 0.664082 0.236385 0.512392
6 1 0.359831 0.330992 0.554301
7 1 0.677539 0.477911 0.608306
8 1 0.955107 0.464144 0.736798
1 1 0.088518 0.0415156 0.921717
9 1 0.782551 0.39357 0.851516
ITEM: TIMESTEP
31000
ITEM: NUMBER OF ATOMS
10
ITEM: BOX BOUNDS pp pp pp
3.0000000000000000e+00 8.0000000000000000e+00
-4.0000000000000000e+00 0.0000000000000000e+00
-7.0000000000000000e+00 3.0000000000000000e+00
ITEM: ATOMS id type xs ys zs
2 1 0.121514 0.0949036 0.116298
3 1 0.0380015 0.158395 0.229868
10 1 0.828193 0.716702 0.139984
4 1 0.340834 0.322806 0.341997
5 1 0.672126 0.235328 0.515685
6 1 0.350758 0.328969 0.553283
7 1 0.678512 0.48086 0.606625
8 1 0.964807 0.464911 0.737893
1 1 0.0868608 0.0395785 0.916899
9 1 0.782226 0.390097 0.851632
ITEM: TIMESTEP
32000
ITEM: NUMBER OF ATOMS
10
ITEM: BOX BOUNDS pp pp pp
3.0000000000000000e+00 8.0000000000000000e+00
-4.0000000000000000e+00 0.0000000000000000e+00
-7.0000000000000000e+00 3.0000000000000000e+00
ITEM: ATOMS id type xs ys zs
2 1 0.11985 0.0934814 0.114952
3 1 0.0311614 0.157094 0.228688
10 1 0.828918 0.721302 0.145555
4 1 0.34095 0.325706 0.341964
5 1 0.680169 0.23427 0.518977
6 1 0.341686 0.326946 0.552266
7 1 0.679484 0.483809 0.604944
8 1 0.974507 0.465677 0.738989
1 1 0.0852036 0.0376413 0.912081
9 1 0.781902 0.386623 0.851747
ITEM: TIMESTEP
33000
ITEM: NUMBER OF ATOMS
10
ITEM: BOX BOUNDS pp pp pp
3.0000000000000000e+00 8.0000000000000000e+00
-4.0000000000000000e+00 0.0000000000000000e+00
-7.0000000000000000e+00 3.0000000000000000e+00
ITEM: ATOMS id type xs ys zs
2 1 0.118186 0.0920592 0.113607
3 1 0.0243213 0.155793 0.227509
10 1 0.829644 0.725902 0.151127
4 1 0.341066 0.328606 0.34193
5 1 0.688213 0.233212 0.52227
6 1 0.332614 0.324923 0.551249
7 1 0.680457 0.486757 0.603263
8 1 0.984207 0.466444 0.740084
1 1 0.0835464 0.0357042 0.907262
9 1 0.781578 0.38315 0.851863
ITEM: TIMESTEP
34000
ITEM: NUMBER OF ATOMS
10
ITEM: BOX BOUNDS pp pp pp
3.0000000000000000e+00 8.0000000000000000e+00
-4.0000000000000000e+00 0.0000000000000000e+00
-7.0000000000000000e+00 3.0000000000000000e+00
ITEM: ATOMS id type xs ys zs
2 1 0.116522 0.0906369 0.112261
3 1 0.0174812 0.154492 0.22633
10 1 0.830369 0.730501 0.156698
4 1 0.341181 0.331506 0.341897
5 1 0.696256 0.232154 0.525563
6 1 0.323542 0.322901 0.550231
7 1 0.68143 0.489706 0.601581
8 1 0.993907 0.46721 0.741179
1 1 0.0818893 0.0337671 0.902444
9 1 0.781254 0.379676 0.851979
ITEM: TIMESTEP
35000
ITEM: NUMBER OF ATOMS
10
ITEM: BOX BOUNDS pp pp pp
3.0000000000000000e+00 8.0000000000000000e+00
-4.0000000000000000e+00 0.0000000000000000e+00
-7.0000000000000000e+00 3.0000000000000000e+00
ITEM: ATOMS id type xs ys zs
2 1 0.114858 0.0892147 0.110915
3 1 0.0106411 0.153191 0.225151
10 1 0.831095 0.735101 0.162269
4 1 0.341297 0.334406 0.341864
5 1 0.7043 0.231096 0.528855
6 1 0.31447 0.320878 0.549214
7 1 0.682403 0.492654 0.5999
8 1 1.00361 0.467977 0.742274
1 1 0.0802321 0.0318299 0.897626
9 1 0.78093 0.376202 0.852094
ITEM: TIMESTEP
36000
ITEM: NUMBER OF ATOMS
10
ITEM: BOX BOUNDS pp pp pp
3.0000000000000000e+00 8.0000000000000000e+00
-4.0000000000000000e+00 0.0000000000000000e+00
-7.0000000000000000e+00 3.0000000000000000e+00
ITEM: ATOMS id type xs ys zs
2 1 0.113194 0.0877924 0.10957
3 1 0.00380105 0.151889 0.223971
10 1 0.83182 0.739701 0.167841
4 1 0.341413 0.337306 0.341831
5 1 0.712344 0.230038 0.532148
6 1 0.305397 0.318855 0.548196
7 1 0.683375 0.495603 0.598219
8 1 1.01331 0.468743 0.74337
1 1 0.0785749 0.0298928 0.892807
9 1 0.780606 0.372729 0.85221
ITEM: TIMESTEP
37000
ITEM: NUMBER OF ATOMS
10
ITEM: BOX BOUNDS pp pp pp
3.0000000000000000e+00 8.0000000000000000e+00
-4.0000000000000000e+00 0.0000000000000000e+00
-7.0000000000000000e+00 3.0000000000000000e+00
ITEM: ATOMS id type xs ys zs
2 1 0.11153 0.0863702 0.108224
3 1 -0.00303905 0.150588 0.222792
10 1 0.832546 0.7443 0.173412
4 1 0.341529 0.340206 0.341798
5 1 0.720387 0.228981 0.535441
6 1 0.296325 0.316833 0.547179
7 1 0.684348 0.498551 0.596538
8 1 1.02301 0.469509 0.744465
1 1 0.0769177 0.0279556 0.887989
9 1 0.780282 0.369255 0.852326
ITEM: TIMESTEP
38000
ITEM: NUMBER OF ATOMS
10
ITEM: BOX BOUNDS pp pp pp
3.0000000000000000e+00 8.0000000000000000e+00
-4.0000000000000000e+00 0.0000000000000000e+00
-7.0000000000000000e+00 3.0000000000000000e+00
ITEM: ATOMS id type xs ys zs
2 1 0.109866 0.0849479 0.106879
3 1 -0.00987915 0.149287 0.221613
10 1 0.833271 0.7489 0.178983
4 1 0.341645 0.343106 0.341765
5 1 0.728431 0.227923 0.538733
6 1 0.287253 0.31481 0.546162
7 1 0.685321 0.5015 0.594857
8 1 1.03271 0.470276 0.74556
1 1 0.0752605 0.0260185 0.883171
9 1 0.779958 0.365782 0.852441
ITEM: TIMESTEP
39000
ITEM: NUMBER OF ATOMS
10
ITEM: BOX BOUNDS pp pp pp
3.0000000000000000e+00 8.0000000000000000e+00
-4.0000000000000000e+00 0.0000000000000000e+00
-7.0000000000000000e+00 3.0000000000000000e+00
ITEM: ATOMS id type xs ys zs
2 1 0.108202 0.0835257 0.105533
3 1 -0.0167192 0.147986 0.220434
10 1 0.833997 0.753499 0.184554
4 1 0.341761 0.346006 0.341732
5 1 0.736474 0.226865 0.542026
6 1 0.278181 0.312787 0.545144
7 1 0.686294 0.504448 0.593175
8 1 1.04241 0.471042 0.746655
1 1 0.0736033 0.0240814 0.878352
9 1 0.779633 0.362308 0.852557
ITEM: TIMESTEP
40000
ITEM: NUMBER OF ATOMS
10
ITEM: BOX BOUNDS pp pp pp
3.0000000000000000e+00 8.0000000000000000e+00
-4.0000000000000000e+00 0.0000000000000000e+00
-7.0000000000000000e+00 3.0000000000000000e+00
ITEM: ATOMS id type xs ys zs
2 1 0.106538 0.0821035 0.104187
3 1 -0.0235593 0.146685 0.219254
10 1 0.834723 0.758099 0.190126
4 1 0.341877 0.348906 0.341699
5 1 0.744518 0.225807 0.545319
6 1 0.269108 0.310764 0.544127
7 1 0.687266 0.507397 0.591494
8 1 1.05211 0.471809 0.74775
1 1 0.0719461 0.0221442 0.873534
9 1 0.779309 0.358834 0.852673
ITEM: TIMESTEP
41000
ITEM: NUMBER OF ATOMS
10
ITEM: BOX BOUNDS pp pp pp
3.0000000000000000e+00 8.0000000000000000e+00
-4.0000000000000000e+00 0.0000000000000000e+00
-7.0000000000000000e+00 3.0000000000000000e+00
ITEM: ATOMS id type xs ys zs
2 1 0.104873 0.0806812 0.102842
3 1 -0.0303994 0.145384 0.218075
10 1 0.835448 0.762699 0.195697
4 1 0.341993 0.351806 0.341666
5 1 0.752562 0.224749 0.548611
6 1 0.260036 0.308742 0.54311
7 1 0.688239 0.510345 0.589813
8 1 1.06181 0.472575 0.748846
1 1 0.0702889 0.0202071 0.868716
9 1 0.778985 0.355361 0.852788
ITEM: TIMESTEP
42000
ITEM: NUMBER OF ATOMS
10
ITEM: BOX BOUNDS pp pp pp
3.0000000000000000e+00 8.0000000000000000e+00
-4.0000000000000000e+00 0.0000000000000000e+00
-7.0000000000000000e+00 3.0000000000000000e+00
ITEM: ATOMS id type xs ys zs
2 1 0.103209 0.079259 0.101496
3 1 -0.0372395 0.144082 0.216896
10 1 0.836174 0.767298 0.201268
4 1 0.342109 0.354707 0.341633
5 1 0.760605 0.223692 0.551904
6 1 0.250964 0.306719 0.542092
7 1 0.689212 0.513294 0.588132
8 1 1.07151 0.473342 0.749941
1 1 0.0686317 0.0182699 0.863897
9 1 0.778661 0.351887 0.852904
ITEM: TIMESTEP
43000
ITEM: NUMBER OF ATOMS
10
ITEM: BOX BOUNDS pp pp pp
3.0000000000000000e+00 8.0000000000000000e+00
-4.0000000000000000e+00 0.0000000000000000e+00
-7.0000000000000000e+00 3.0000000000000000e+00
ITEM: ATOMS id type xs ys zs
2 1 0.101545 0.0778367 0.100151
3 1 -0.0440796 0.142781 0.215716
10 1 0.836899 0.771898 0.20684
4 1 0.342225 0.357607 0.3416
5 1 0.768649 0.222634 0.555197
6 1 0.241892 0.304696 0.541075
7 1 0.690184 0.516242 0.586451
8 1 1.08121 0.474108 0.751036
1 1 0.0669745 0.0163328 0.859079
9 1 0.778337 0.348414 0.85302
ITEM: TIMESTEP
44000
ITEM: NUMBER OF ATOMS
10
ITEM: BOX BOUNDS pp pp pp
3.0000000000000000e+00 8.0000000000000000e+00
-4.0000000000000000e+00 0.0000000000000000e+00
-7.0000000000000000e+00 3.0000000000000000e+00
ITEM: ATOMS id type xs ys zs
2 1 0.0998812 0.0764145 0.098805
3 1 -0.0509197 0.14148 0.214537
10 1 0.837625 0.776497 0.212411
4 1 0.342341 0.360507 0.341567
5 1 0.776692 0.221576 0.558489
6 1 0.23282 0.302673 0.540058
7 1 0.691157 0.519191 0.58477
8 1 1.09091 0.474875 0.752131
1 1 0.0653173 0.0143957 0.854261
9 1 0.778013 0.34494 0.853135
ITEM: TIMESTEP
45000
ITEM: NUMBER OF ATOMS
10
ITEM: BOX BOUNDS pp pp pp
3.0000000000000000e+00 8.0000000000000000e+00
-4.0000000000000000e+00 0.0000000000000000e+00
-7.0000000000000000e+00 3.0000000000000000e+00
ITEM: ATOMS id type xs ys zs
2 1 0.0982171 0.0749922 0.0974594
3 1 -0.0577598 0.140179 0.213358
10 1 0.83835 0.781097 0.217982
4 1 0.342456 0.363407 0.341533
5 1 0.784736 0.220518 0.561782
6 1 0.223747 0.300651 0.53904
7 1 0.69213 0.522139 0.583088
8 1 1.10061 0.475641 0.753227
1 1 0.0636601 0.0124585 0.849442
9 1 0.777689 0.341466 0.853251
ITEM: TIMESTEP
46000
ITEM: NUMBER OF ATOMS
10
ITEM: BOX BOUNDS pp pp pp
3.0000000000000000e+00 8.0000000000000000e+00
-4.0000000000000000e+00 0.0000000000000000e+00
-7.0000000000000000e+00 3.0000000000000000e+00
ITEM: ATOMS id type xs ys zs
2 1 0.096553 0.07357 0.0961138
3 1 -0.0645999 0.138878 0.212179
10 1 0.839076 0.785697 0.223553
4 1 0.342572 0.366307 0.3415
5 1 0.792779 0.21946 0.565075
6 1 0.214675 0.298628 0.538023
7 1 0.693103 0.525088 0.581407
8 1 1.11031 0.476408 0.754322
1 1 0.0620029 0.0105214 0.844624
9 1 0.777364 0.337993 0.853367
ITEM: TIMESTEP
47000
ITEM: NUMBER OF ATOMS
10
ITEM: BOX BOUNDS pp pp pp
3.0000000000000000e+00 8.0000000000000000e+00
-4.0000000000000000e+00 0.0000000000000000e+00
-7.0000000000000000e+00 3.0000000000000000e+00
ITEM: ATOMS id type xs ys zs
2 1 0.0948889 0.0721478 0.0947682
3 1 -0.07144 0.137577 0.210999
10 1 0.839801 0.790296 0.229125
4 1 0.342688 0.369207 0.341467
5 1 0.800823 0.218403 0.568367
6 1 0.205603 0.296605 0.537005
7 1 0.694075 0.528037 0.579726
8 1 1.12001 0.477174 0.755417
1 1 0.0603457 0.00858425 0.839806
9 1 0.77704 0.334519 0.853482
ITEM: TIMESTEP
48000
ITEM: NUMBER OF ATOMS
10
ITEM: BOX BOUNDS pp pp pp
3.0000000000000000e+00 8.0000000000000000e+00
-4.0000000000000000e+00 0.0000000000000000e+00
-7.0000000000000000e+00 3.0000000000000000e+00
ITEM: ATOMS id type xs ys zs
2 1 0.0932248 0.0707255 0.0934226
3 1 -0.0782801 0.136275 0.20982
10 1 0.840527 0.794896 0.234696
4 1 0.342804 0.372107 0.341434
5 1 0.808867 0.217345 0.57166
6 1 0.196531 0.294582 0.535988
7 1 0.695048 0.530985 0.578045
8 1 1.12971 0.477941 0.756512
1 1 0.0586885 0.00664712 0.834987
9 1 0.776716 0.331046 0.853598
ITEM: TIMESTEP
49000
ITEM: NUMBER OF ATOMS
10
ITEM: BOX BOUNDS pp pp pp
3.0000000000000000e+00 8.0000000000000000e+00
-4.0000000000000000e+00 0.0000000000000000e+00
-7.0000000000000000e+00 3.0000000000000000e+00
ITEM: ATOMS id type xs ys zs
2 1 0.0915607 0.0693033 0.092077
3 1 -0.0851202 0.134974 0.208641
10 1 0.841252 0.799495 0.240267
4 1 0.34292 0.375007 0.341401
5 1 0.81691 0.216287 0.574953
6 1 0.187459 0.29256 0.534971
7 1 0.696021 0.533934 0.576364
8 1 1.13941 0.478707 0.757607
1 1 0.0570313 0.00470998 0.830169
9 1 0.776392 0.327572 0.853714
ITEM: TIMESTEP
50000
ITEM: NUMBER OF ATOMS
10
ITEM: BOX BOUNDS pp pp pp
3.0000000000000000e+00 8.0000000000000000e+00
-4.0000000000000000e+00 0.0000000000000000e+00
-7.0000000000000000e+00 3.0000000000000000e+00
ITEM: ATOMS id type xs ys zs
2 1 0.0898966 0.067881 0.0907314
3 1 -0.0919603 0.133673 0.207462
10 1 0.841978 0.804095 0.245839
4 1 0.343036 0.377907 0.341368
5 1 0.824954 0.215229 0.578245
6 1 0.178386 0.290537 0.533953
7 1 0.696993 0.536882 0.574683
8 1 1.14911 0.479474 0.758703
1 1 0.0553741 0.00277284 0.825351
9 1 0.776068 0.324098 0.853829
ITEM: TIMESTEP
51000
ITEM: NUMBER OF ATOMS
10
ITEM: BOX BOUNDS pp pp pp
3.0000000000000000e+00 8.0000000000000000e+00
-4.0000000000000000e+00 0.0000000000000000e+00
-7.0000000000000000e+00 3.0000000000000000e+00
ITEM: ATOMS id type xs ys zs
2 1 0.0882325 0.0664588 0.0893858
3 1 -0.0988004 0.132372 0.206282
10 1 0.842703 0.808695 0.25141
4 1 0.343152 0.380807 0.341335
5 1 0.832997 0.214171 0.581538
6 1 0.169314 0.288514 0.532936
7 1 0.697966 0.539831 0.573001
8 1 1.15881 0.48024 0.759798
1 1 0.0537169 0.000835701 0.820532
9 1 0.775744 0.320625 0.853945
ITEM: TIMESTEP
52000
ITEM: NUMBER OF ATOMS
10
ITEM: BOX BOUNDS pp pp pp
3.0000000000000000e+00 8.0000000000000000e+00
-4.0000000000000000e+00 0.0000000000000000e+00
-7.0000000000000000e+00 3.0000000000000000e+00
ITEM: ATOMS id type xs ys zs
2 1 0.0865684 0.0650365 0.0880402
3 1 0.894359 0.131071 0.205103
4 1 0.343268 0.383707 0.341302
10 1 0.843429 0.813294 0.256981
6 1 0.160242 0.286492 0.531919
7 1 0.698939 0.542779 0.57132
5 1 0.841041 0.213114 0.584831
8 1 0.168507 0.481007 0.760893
1 1 0.0520597 0.998899 0.815714
9 1 0.77542 0.317151 0.854061
ITEM: TIMESTEP
53000
ITEM: NUMBER OF ATOMS
10
ITEM: BOX BOUNDS pp pp pp
3.0000000000000000e+00 8.0000000000000000e+00
-4.0000000000000000e+00 0.0000000000000000e+00
-7.0000000000000000e+00 3.0000000000000000e+00
ITEM: ATOMS id type xs ys zs
2 1 0.0849043 0.0636143 0.0866946
3 1 0.887519 0.12977 0.203924
4 1 0.343384 0.386607 0.341269
10 1 0.844154 0.817894 0.262552
6 1 0.15117 0.284469 0.530901
7 1 0.699912 0.545728 0.569639
5 1 0.849084 0.212056 0.588123
8 1 0.178207 0.481773 0.761988
1 1 0.0504026 0.996961 0.810896
9 1 0.775096 0.313678 0.854176
ITEM: TIMESTEP
54000
ITEM: NUMBER OF ATOMS
10
ITEM: BOX BOUNDS pp pp pp
3.0000000000000000e+00 8.0000000000000000e+00
-4.0000000000000000e+00 0.0000000000000000e+00