ITEM: TIMESTEP
0
ITEM: NUMBER OF ATOMS
10
ITEM: BOX BOUNDS pp pp pp
3.0000000000000000e+00 8.0000000000000000e+00
-4.0000000000000000e+00 0.0000000000000000e+00
-7.0000000000000000e+00 3.0000000000000000e+00
ITEM: ATOMS id type xs ys zs
1 1 0.134415 0.095131 0.0549478
2 1 0.171846 0.138208 0.159649
3 1 0.225196 0.190333 0.255438
4 1 0.334973 0.241511 0.340428
5 1 0.453194 0.270684 0.433243
6 1 0.499823 0.335817 0.527808
7 1 0.660635 0.425301 0.638206
8 1 0.783337 0.456991 0.750266
9 1 0.79425 0.501516 0.879339
10 1 0.806165 0.577058 0.970839
ITEM: TIMESTEP
1000
ITEM: NUMBER OF ATOMS
10
ITEM: BOX BOUNDS pp pp pp
3.0000000000000000e+00 8.0000000000000000e+00
-4.0000000000000000e+00 0.0000000000000000e+00
-7.0000000000000000e+00 3.0000000000000000e+00
ITEM: ATOMS id type xs ys zs
1 1 0.134236 0.0949255 0.0544478
2 1 0.171335 0.137739 0.15891
3 1 0.224781 0.190493 0.255823
4 1 0.335726 0.241939 0.341006
5 1 0.452885 0.269847 0.432179
6 1 0.500483 0.33674 0.529147
7 1 0.660635 0.425301 0.638206
8 1 0.783337 0.456991 0.750266
9 1 0.793931 0.499497 0.876894
10 1 0.806484 0.579077 0.973284
ITEM: TIMESTEP
2000
ITEM: NUMBER OF ATOMS
10
ITEM: BOX BOUNDS pp pp pp
3.0000000000000000e+00 8.0000000000000000e+00
-4.0000000000000000e+00 0.0000000000000000e+00
-7.0000000000000000e+00 3.0000000000000000e+00
ITEM: ATOMS id type xs ys zs
1 1 0.133689 0.0942939 0.0529078
2 1 0.170027 0.136544 0.157094
3 1 0.223469 0.190849 0.256742
4 1 0.337595 0.243101 0.342433
5 1 0.452582 0.267911 0.429932
6 1 0.502084 0.338986 0.532405
7 1 0.660635 0.425301 0.638206
8 1 0.783337 0.456991 0.750266
9 1 0.793263 0.49526 0.871761
10 1 0.807152 0.583314 0.978417
ITEM: TIMESTEP
3000
ITEM: NUMBER OF ATOMS
10
ITEM: BOX BOUNDS pp pp pp
3.0000000000000000e+00 8.0000000000000000e+00
-4.0000000000000000e+00 0.0000000000000000e+00
-7.0000000000000000e+00 3.0000000000000000e+00
ITEM: ATOMS id type xs ys zs
1 1 0.132761 0.0932197 0.0502758
2 1 0.168336 0.135017 0.154949
3 1 0.221206 0.191193 0.257795
4 1 0.339458 0.244682 0.343841
5 1 0.45363 0.265811 0.428227
6 1 0.504056 0.341761 0.536426
7 1 0.660635 0.425301 0.638206
8 1 0.783337 0.456991 0.750266
9 1 0.792537 0.49066 0.86619
10 1 0.807878 0.587913 0.983988
ITEM: TIMESTEP
4000
ITEM: NUMBER OF ATOMS
10
ITEM: BOX BOUNDS pp pp pp
3.0000000000000000e+00 8.0000000000000000e+00
-4.0000000000000000e+00 0.0000000000000000e+00
-7.0000000000000000e+00 3.0000000000000000e+00
ITEM: ATOMS id type xs ys zs
1 1 0.131485 0.091737 0.0466209
2 1 0.166545 0.133425 0.152959
3 1 0.218001 0.191383 0.258703
4 1 0.34008 0.24641 0.34432
5 1 0.457277 0.26415 0.428401
6 1 0.506058 0.344579 0.54051
7 1 0.660635 0.425301 0.638206
8 1 0.783336 0.456988 0.750255
9 1 0.791813 0.486064 0.86063
10 1 0.808603 0.592513 0.989559
ITEM: TIMESTEP
5000
ITEM: NUMBER OF ATOMS
10
ITEM: BOX BOUNDS pp pp pp
3.0000000000000000e+00 8.0000000000000000e+00
-4.0000000000000000e+00 0.0000000000000000e+00
-7.0000000000000000e+00 3.0000000000000000e+00
ITEM: ATOMS id type xs ys zs
1 1 0.129946 0.0899422 0.0421709
2 1 0.164783 0.131884 0.151288
3 1 0.213799 0.191278 0.259224
4 1 0.339435 0.24831 0.343866
5 1 0.463424 0.262872 0.430371
6 1 0.50806 0.347397 0.544593
7 1 0.660635 0.425301 0.638206
8 1 0.783297 0.45686 0.749751
9 1 0.791125 0.481593 0.855562
10 1 0.809329 0.597113 0.995131
ITEM: TIMESTEP
6000
ITEM: NUMBER OF ATOMS
10
ITEM: BOX BOUNDS pp pp pp
3.0000000000000000e+00 8.0000000000000000e+00
-4.0000000000000000e+00 0.0000000000000000e+00
-7.0000000000000000e+00 3.0000000000000000e+00
ITEM: ATOMS id type xs ys zs
1 1 0.128291 0.0880069 0.0373574
2 1 0.163117 0.13046 0.149938
3 1 0.20846 0.190671 0.259007
4 1 0.33848 0.250558 0.343165
5 1 0.471037 0.261773 0.433369
6 1 0.510062 0.350216 0.548677
7 1 0.660635 0.425301 0.638206
8 1 0.783166 0.456439 0.747983
9 1 0.790531 0.477413 0.851759
10 1 0.810054 0.601712 1.0007
ITEM: TIMESTEP
7000
ITEM: NUMBER OF ATOMS
10
ITEM: BOX BOUNDS pp pp pp
3.0000000000000000e+00 8.0000000000000000e+00
-4.0000000000000000e+00 0.0000000000000000e+00
-7.0000000000000000e+00 3.0000000000000000e+00
ITEM: ATOMS id type xs ys zs
1 1 0.126634 0.0860698 0.032539
2 1 0.161453 0.129037 0.148592
3 1 0.202148 0.189616 0.25816
4 1 0.338068 0.253212 0.342801
5 1 0.47908 0.260715 0.436661
6 1 0.512064 0.353034 0.552761
7 1 0.660635 0.425301 0.638206
8 1 0.782912 0.455671 0.744493
9 1 0.790059 0.473582 0.849678
10 1 0.81078 0.606312 1.00627
ITEM: TIMESTEP
8000
ITEM: NUMBER OF ATOMS
10
ITEM: BOX BOUNDS pp pp pp
3.0000000000000000e+00 8.0000000000000000e+00
-4.0000000000000000e+00 0.0000000000000000e+00
-7.0000000000000000e+00 3.0000000000000000e+00
ITEM: ATOMS id type xs ys zs
1 1 0.124976 0.0841327 0.0277207
2 1 0.159789 0.127615 0.147247
3 1 0.195324 0.188322 0.256991
4 1 0.338168 0.256104 0.342758
5 1 0.487124 0.259657 0.439954
6 1 0.514066 0.355852 0.556844
7 1 0.660635 0.425301 0.638206
8 1 0.782561 0.454656 0.739568
9 1 0.789685 0.469997 0.849031
10 1 0.811505 0.610911 1.01184
ITEM: TIMESTEP
9000
ITEM: NUMBER OF ATOMS
10
ITEM: BOX BOUNDS pp pp pp
3.0000000000000000e+00 8.0000000000000000e+00
-4.0000000000000000e+00 0.0000000000000000e+00
-7.0000000000000000e+00 3.0000000000000000e+00
ITEM: ATOMS id type xs ys zs
1 1 0.123319 0.0821955 0.0229024
2 1 0.158125 0.126193 0.145901
3 1 0.188484 0.187021 0.255811
4 1 0.338284 0.259004 0.342725
5 1 0.495167 0.258599 0.443246
6 1 0.515824 0.358556 0.560795
7 1 0.660878 0.425415 0.638338
8 1 0.782163 0.453538 0.733941
9 1 0.789357 0.466516 0.849087
10 1 0.812231 0.615511 1.01742
ITEM: TIMESTEP
10000
ITEM: NUMBER OF ATOMS
10
ITEM: BOX BOUNDS pp pp pp
3.0000000000000000e+00 8.0000000000000000e+00
-4.0000000000000000e+00 0.0000000000000000e+00
-7.0000000000000000e+00 3.0000000000000000e+00
ITEM: ATOMS id type xs ys zs
1 1 0.121662 0.0802584 0.018084
2 1 0.156461 0.124771 0.144555
3 1 0.181644 0.18572 0.254632
4 1 0.3384 0.261904 0.342692
5 1 0.503211 0.257542 0.446539
6 1 0.516587 0.360803 0.564215
7 1 0.661946 0.425948 0.63887
8 1 0.781934 0.452451 0.728385
9 1 0.789033 0.463042 0.849203
10 1 0.812957 0.620111 1.02299
ITEM: TIMESTEP
11000
ITEM: NUMBER OF ATOMS
10
ITEM: BOX BOUNDS pp pp pp
3.0000000000000000e+00 8.0000000000000000e+00
-4.0000000000000000e+00 0.0000000000000000e+00
-7.0000000000000000e+00 3.0000000000000000e+00
ITEM: ATOMS id type xs ys zs
1 1 0.120005 0.0783212 0.0132657
2 1 0.154796 0.123348 0.14321
3 1 0.174804 0.184419 0.253453
4 1 0.338516 0.264804 0.342658
5 1 0.511254 0.256484 0.449832
6 1 0.515904 0.362403 0.566895
7 1 0.663392 0.426894 0.639354
8 1 0.782771 0.451597 0.723619
9 1 0.788709 0.459569 0.849319
10 1 0.813682 0.62471 1.02856
ITEM: TIMESTEP
12000
ITEM: NUMBER OF ATOMS
10
ITEM: BOX BOUNDS pp pp pp
3.0000000000000000e+00 8.0000000000000000e+00
-4.0000000000000000e+00 0.0000000000000000e+00
-7.0000000000000000e+00 3.0000000000000000e+00
ITEM: ATOMS id type xs ys zs
1 1 0.118348 0.0763841 0.00844738
2 1 0.153132 0.121926 0.141864
3 1 0.167963 0.183118 0.252274
4 1 0.338632 0.267704 0.342625
5 1 0.519298 0.255426 0.453124
6 1 0.51352 0.363258 0.56874
7 1 0.664331 0.428132 0.63912
8 1 0.785817 0.451196 0.720404
9 1 0.788385 0.456095 0.849434
10 1 0.814408 0.62931 1.03413
ITEM: TIMESTEP
13000
ITEM: NUMBER OF ATOMS
10
ITEM: BOX BOUNDS pp pp pp
3.0000000000000000e+00 8.0000000000000000e+00
-4.0000000000000000e+00 0.0000000000000000e+00
-7.0000000000000000e+00 3.0000000000000000e+00
ITEM: ATOMS id type xs ys zs
1 1 0.11669 0.074447 0.00362905
2 1 0.151468 0.120504 0.140519
3 1 0.161123 0.181816 0.251094
4 1 0.338747 0.270604 0.342592
5 1 0.527341 0.254368 0.456417
6 1 0.509326 0.363333 0.569741
7 1 0.664144 0.429593 0.637766
8 1 0.791798 0.451352 0.719154
9 1 0.788061 0.452622 0.84955
10 1 0.815133 0.63391 1.0397
ITEM: TIMESTEP
14000
ITEM: NUMBER OF ATOMS
10
ITEM: BOX BOUNDS pp pp pp
3.0000000000000000e+00 8.0000000000000000e+00
-4.0000000000000000e+00 0.0000000000000000e+00
-7.0000000000000000e+00 3.0000000000000000e+00
ITEM: ATOMS id type xs ys zs
1 1 0.115033 0.0725098 -0.00118929
2 1 0.149804 0.119082 0.139173
3 1 0.154283 0.180515 0.249915
4 1 0.338863 0.273505 0.342559
5 1 0.535385 0.25331 0.45971
6 1 0.503304 0.362626 0.569938
7 1 0.663458 0.431436 0.635725
8 1 0.800107 0.451908 0.719395
9 1 0.787737 0.449148 0.849666
10 1 0.815859 0.638509 1.04527
ITEM: TIMESTEP
15000
ITEM: NUMBER OF ATOMS
10
ITEM: BOX BOUNDS pp pp pp
3.0000000000000000e+00 8.0000000000000000e+00
-4.0000000000000000e+00 0.0000000000000000e+00
-7.0000000000000000e+00 3.0000000000000000e+00
ITEM: ATOMS id type xs ys zs
1 1 0.113376 0.0705727 -0.00600762
2 1 0.14814 0.11766 0.137827
3 1 0.147443 0.179214 0.248736
4 1 0.338979 0.276405 0.342526
5 1 0.543429 0.252253 0.463002
6 1 0.495648 0.361217 0.569463
7 1 0.663214 0.433799 0.633622
8 1 0.809607 0.452647 0.72037
9 1 0.787413 0.445674 0.849781
10 1 0.816584 0.643109 1.05084
ITEM: TIMESTEP
16000
ITEM: NUMBER OF ATOMS
10
ITEM: BOX BOUNDS pp pp pp
3.0000000000000000e+00 8.0000000000000000e+00
-4.0000000000000000e+00 0.0000000000000000e+00
-7.0000000000000000e+00 3.0000000000000000e+00
ITEM: ATOMS id type xs ys zs
1 1 0.111719 0.0686355 -0.010826
2 1 0.146476 0.116237 0.136482
3 1 0.140603 0.177913 0.247557
4 1 0.339095 0.279305 0.342493
5 1 0.551472 0.251195 0.466295
6 1 0.486842 0.35931 0.568544
7 1 0.663921 0.436632 0.631843
8 1 0.819307 0.453413 0.721465
9 1 0.787088 0.442201 0.849897
10 1 0.81731 0.647708 1.05641
ITEM: TIMESTEP
17000
ITEM: NUMBER OF ATOMS
10
ITEM: BOX BOUNDS pp pp pp
3.0000000000000000e+00 8.0000000000000000e+00
-4.0000000000000000e+00 0.0000000000000000e+00
-7.0000000000000000e+00 3.0000000000000000e+00
ITEM: ATOMS id type xs ys zs
1 1 0.110062 0.0666984 -0.0156443
2 1 0.144812 0.114815 0.135136
3 1 0.133763 0.176612 0.246377
4 1 0.339211 0.282205 0.34246
5 1 0.559516 0.250137 0.469588
6 1 0.477769 0.357287 0.567526
7 1 0.664894 0.43958 0.630161
8 1 0.829007 0.45418 0.72256
9 1 0.786764 0.438727 0.850013
10 1 0.818035 0.652308 1.06199
ITEM: TIMESTEP
18000
ITEM: NUMBER OF ATOMS
10
ITEM: BOX BOUNDS pp pp pp
3.0000000000000000e+00 8.0000000000000000e+00
-4.0000000000000000e+00 0.0000000000000000e+00
-7.0000000000000000e+00 3.0000000000000000e+00
ITEM: ATOMS id type xs ys zs
1 1 0.108404 0.0647613 -0.0204626
2 1 0.143148 0.113393 0.133791
3 1 0.126923 0.175311 0.245198
4 1 0.339327 0.285105 0.342427
5 1 0.567559 0.249079 0.47288
6 1 0.468697 0.355264 0.566509
7 1 0.665866 0.442529 0.62848
8 1 0.838707 0.454946 0.723656
9 1 0.78644 0.435254 0.850128
10 1 0.818761 0.656908 1.06756
ITEM: TIMESTEP
19000
ITEM: NUMBER OF ATOMS
10
ITEM: BOX BOUNDS pp pp pp
3.0000000000000000e+00 8.0000000000000000e+00
-4.0000000000000000e+00 0.0000000000000000e+00
-7.0000000000000000e+00 3.0000000000000000e+00
ITEM: ATOMS id type xs ys zs
1 1 0.106747 0.0628241 -0.025281
2 1 0.141484 0.111971 0.132445
3 1 0.120083 0.174009 0.244019
4 1 0.339443 0.288005 0.342394
5 1 0.575603 0.248021 0.476173
6 1 0.459625 0.353242 0.565492
7 1 0.666839 0.445478 0.626799
8 1 0.848407 0.455713 0.724751
9 1 0.786116 0.43178 0.850244
10 1 0.819486 0.661507 1.07313
ITEM: TIMESTEP
20000
ITEM: NUMBER OF ATOMS
10
ITEM: BOX BOUNDS pp pp pp
3.0000000000000000e+00 8.0000000000000000e+00
-4.0000000000000000e+00 0.0000000000000000e+00
-7.0000000000000000e+00 3.0000000000000000e+00
ITEM: ATOMS id type xs ys zs
1 1 0.10509 0.060887 -0.0300993
2 1 0.13982 0.110548 0.131099
3 1 0.113243 0.172708 0.24284
4 1 0.339559 0.290905 0.342361
5 1 0.583646 0.246963 0.479465
6 1 0.450553 0.351219 0.564474
7 1 0.667812 0.448426 0.625118
8 1 0.858107 0.456479 0.725846
9 1 0.785792 0.428306 0.85036
10 1 0.820212 0.666107 1.0787
ITEM: TIMESTEP
21000
ITEM: NUMBER OF ATOMS
10
ITEM: BOX BOUNDS pp pp pp
3.0000000000000000e+00 8.0000000000000000e+00
-4.0000000000000000e+00 0.0000000000000000e+00
-7.0000000000000000e+00 3.0000000000000000e+00
ITEM: ATOMS id type xs ys zs
1 1 0.103433 0.0589499 -0.0349176
2 1 0.138155 0.109126 0.129754
3 1 0.106403 0.171407 0.24166
4 1 0.339675 0.293805 0.342328
5 1 0.59169 0.245906 0.482758
6 1 0.441481 0.349196 0.563457
7 1 0.668785 0.451375 0.623437
8 1 0.867807 0.457246 0.726941
9 1 0.785468 0.424833 0.850475
10 1 0.820937 0.670706 1.08427
ITEM: TIMESTEP
22000
ITEM: NUMBER OF ATOMS
10
ITEM: BOX BOUNDS pp pp pp
3.0000000000000000e+00 8.0000000000000000e+00
-4.0000000000000000e+00 0.0000000000000000e+00
-7.0000000000000000e+00 3.0000000000000000e+00
ITEM: ATOMS id type xs ys zs
1 1 0.101776 0.0570127 -0.039736
2 1 0.136491 0.107704 0.128408
3 1 0.0995624 0.170106 0.240481
4 1 0.339791 0.296705 0.342294
5 1 0.599734 0.244848 0.486051
6 1 0.432408 0.347174 0.562439
7 1 0.669757 0.454323 0.621755
8 1 0.877507 0.458012 0.728036
9 1 0.785144 0.421359 0.850591
10 1 0.821663 0.675306 1.08984
ITEM: TIMESTEP
23000
ITEM: NUMBER OF ATOMS
10
ITEM: BOX BOUNDS pp pp pp
3.0000000000000000e+00 8.0000000000000000e+00
-4.0000000000000000e+00 0.0000000000000000e+00
-7.0000000000000000e+00 3.0000000000000000e+00
ITEM: ATOMS id type xs ys zs
1 1 0.100118 0.0550756 -0.0445543
2 1 0.134827 0.106282 0.127063
3 1 0.0927223 0.168805 0.239302
4 1 0.339907 0.299605 0.342261
5 1 0.607777 0.24379 0.489343
6 1 0.423336 0.345151 0.561422
7 1 0.67073 0.457272 0.620074
8 1 0.887207 0.458779 0.729132
9 1 0.784819 0.417886 0.850707
10 1 0.822388 0.679906 1.09541
ITEM: TIMESTEP
24000
ITEM: NUMBER OF ATOMS
10
ITEM: BOX BOUNDS pp pp pp
3.0000000000000000e+00 8.0000000000000000e+00
-4.0000000000000000e+00 0.0000000000000000e+00
-7.0000000000000000e+00 3.0000000000000000e+00
ITEM: ATOMS id type xs ys zs
1 1 0.0984612 0.0531384 -0.0493726
2 1 0.133163 0.104859 0.125717
3 1 0.0858822 0.167504 0.238122
4 1 0.340022 0.302505 0.342228
5 1 0.615821 0.242732 0.492636
6 1 0.414264 0.343128 0.560405
7 1 0.671703 0.46022 0.618393
8 1 0.896907 0.459545 0.730227
9 1 0.784495 0.414412 0.850822
10 1 0.823114 0.684505 1.10099
ITEM: TIMESTEP
25000
ITEM: NUMBER OF ATOMS
10
ITEM: BOX BOUNDS pp pp pp
3.0000000000000000e+00 8.0000000000000000e+00
-4.0000000000000000e+00 0.0000000000000000e+00
-7.0000000000000000e+00 3.0000000000000000e+00
ITEM: ATOMS id type xs ys zs
1 1 0.096804 0.0512013 -0.054191
2 1 0.131499 0.103437 0.124371
3 1 0.0790421 0.166202 0.236943
4 1 0.340138 0.305405 0.342195
5 1 0.623864 0.241674 0.495929
6 1 0.405192 0.341105 0.559387
7 1 0.672675 0.463169 0.616712
8 1 0.906607 0.460312 0.731322
9 1 0.784171 0.410938 0.850938
10 1 0.82384 0.689105 1.10656
ITEM: TIMESTEP
26000
ITEM: NUMBER OF ATOMS
10
ITEM: BOX BOUNDS pp pp pp
3.0000000000000000e+00 8.0000000000000000e+00
-4.0000000000000000e+00 0.0000000000000000e+00
-7.0000000000000000e+00 3.0000000000000000e+00
ITEM: ATOMS id type xs ys zs
1 1 0.0951468 0.0492642 -0.0590093
2 1 0.129835 0.102015 0.123026
3 1 0.072202 0.164901 0.235764
4 1 0.340254 0.308305 0.342162
5 1 0.631908 0.240617 0.499221
6 1 0.396119 0.339083 0.55837
7 1 0.673648 0.466117 0.615031
8 1 0.916307 0.461078 0.732417
9 1 0.783847 0.407465 0.851054
10 1 0.824565 0.693704 1.11213
ITEM: TIMESTEP
27000
ITEM: NUMBER OF ATOMS
10
ITEM: BOX BOUNDS pp pp pp
3.0000000000000000e+00 8.0000000000000000e+00
-4.0000000000000000e+00 0.0000000000000000e+00
-7.0000000000000000e+00 3.0000000000000000e+00
ITEM: ATOMS id type xs ys zs
2 1 0.128171 0.100593 0.12168
3 1 0.0653619 0.1636 0.234585
10 1 0.825291 0.698304 0.117699
4 1 0.34037 0.311205 0.342129
5 1 0.639951 0.239559 0.502514
6 1 0.387047 0.33706 0.557353
7 1 0.674621 0.469066 0.61335
8 1 0.926007 0.461845 0.733513
1 1 0.0934896 0.047327 0.936172
9 1 0.783523 0.403991 0.851169
