# LAMMPS data file written by OVITO Basic 3.9.2

7 atoms
1 atom types
7 ellipsoids

3.0 8.0 xlo xhi
-4.0 0.0 ylo yhi
-7.0 3.0 zlo zhi

Atoms  # ellipsoid

1 1 1 238.7324039657 3.6720747474 -3.6194758432 -6.4505222424 0 0 0
2 1 1 238.7324039657 3.8592290209 -3.4471688169 -5.4035084165 0 0 0
3 1 1 238.7324039657 4.1259811856 -3.2386686297 -4.4456230844 0 0 0
4 1 1 238.7324039657 4.6748644336 -3.0339567014 -3.595721315 0 0 0
5 1 1 238.7324039657 5.2659695854 -2.9172640212 -2.6675677911 0 0 0
6 1 1 238.7324039657 5.4991127213 -2.6567319878 -1.7219211522 0 0 0
7 1 1 238.7324039657 6.3031744326 -2.2987959205 -0.6179449271 0 0 0
#8 1 1 238.7324039657 6.9166825231 -2.1720350919 0.5026608531 0 0 0
#9 1 1 238.7324039657 6.9712479822 -1.9939358734 1.7933897807 0 0 0
#10 1 1 238.7324039657 7.0308270283 -1.6917691085 2.7083904569 0 0 0

Velocities

1 0.0 0.0 10 0.0 0.0 0.0
2 0.0 0.0 10 0.0 0.0 0.0
3 0.0 0.0 10 0.0 0.0 0.0
4 0.0 0.0 10 0.0 0.0 0.0
5 0.0 0.0 10 0.0 0.0 0.0
6 0.0 0.0 10 0.0 0.0 0.0
7 0.0 0.0 10 0.0 0.0 0.0
#8 0.0 0.0 10 0.0 0.0 0.0
#9 0.0 0.0 10 0.0 0.0 0.0
#10 0.0 0.0 10 0.0 0.0 0.0

Ellipsoids

1 0.5 0.5 1.0 1.0 0.0 0.0 0.0
2 0.5 1.0 0.5 0.9237853184 0.382910976 0.0 0.0
3 1.0 0.5 0.5 0.9237853184 0.0 0.382910976 0.0
4 0.5 0.5 1.0 0.9237853184 0.0 0.0 0.382910976
5 0.5 1.0 0.5 0.0 0.707106816 0.0 0.707106816
6 0.5 0.5 1.0 0.707106816 0.0 0.0 0.707106816
7 0.5 1.0 0.5 0.707106816 0.0 0.707106816 0.0
#8 1.0 0.5 0.5 0.5774 0.5774 0.5774 0.0
#9 0.5 0.5 1.0 0.5774 0.0 0.5774 0.5774
#10 0.5 1.0 0.5 0.0 0.5774 0.5774 0.5774
