LAMMPS (7 Feb 2024 - Development - patch_21Nov2023-1044-gf8ba68cd2d-modified)
KOKKOS mode with Kokkos version 4.2.0 is enabled (../kokkos.cpp:72)
package kokkos
package kokkos comm device
###
# Reference paper:
# K. Kremer and G. S. Grest
# Dynamics of entangled linear polymer melts: A molecular-dynamics simulation
# J Chem Phys 92, 5057 (1990)
###

###
# Box and units  (use LJ units and periodic boundaries)
###

units lj

atom_style ellipsoid

boundary        p p p

###
# Pair interactions require lists of neighbours to be calculated
###
neighbor 3.0 bin
neigh_modify every 1 delay 0 check yes

### Generate RESTART file, SPECIAL format, not a .txt file ###
### Useful if simulation crashes ###
#restart 10000 polymer.restart
#############################

#processors 2 1 1

### READ "REstart" data file ###
#read_restart polymer.restart.10000
######################

read_data lmp_data
Reading data file ...
  orthogonal box = (3 -4 -7) to (8 0 3)
  1 by 1 by 2 MPI processor grid
  reading atoms ...
  10 atoms
  reading velocities ...
  10 velocities
  10 ellipsoids
  read_data CPU = 0.002 seconds

### reset timestep ###
reset_timestep 0
######################

###
# Define groups (atom type 1 is group 'all')
###
group all type 1
10 atoms in group all
group polymer type 1
10 atoms in group polymer

###
# Dump configs - "simple dumpings"
###

###
# Dump configs + box coords
###
#dump   1   all   custom   100000   polymer.dump.*  id x y z  ix iy iz
#dump_modify   1   format line "%d %.5f %.5f %.5f %d %d %d"
dump   id all atom 1000 dump.polymer

###################################################################
# Stiffness term
#
# E = K * (theta-thera0)**2, K>0
#
#angle_style   harmonic
#angle_coeff   1 2.0 120.0
###################################################################

###################################################################
# Pair interaction between non-bonded atoms
#
#  Lennard-Jones 12-6 potential with cutoff:
#  potential E=4epsilon[ (sigma/r)^12 - (sigma/r)^6]  for r<r_cut
#
#  1.12246152962189 = 2^(1/6) is the minimum of the potential

#pair_style      lj/cut 1.12246152962189

#
#  pair_coeff for lj/cut, specify 4:
#    * atom type interacting with
#    * atom type
#    * epsilon (energy units)
#    * sigma (distance units)
#

#pair_coeff      1 1 1.0 1.1

#
#  pair_modify shift yes adds a constant to the potential such
#  that E(r_cut)=0. Forces remains unchanged.
#

#pair_modify     shift yes

###################################################

#comm_modify cutoff 6
#comm_style tiled
#balance 1.2 rcb

###
# Set up fixes
###

fix 1 all   nve   ###NVE ensemble
#fix 2 all   langevin   1.0 1.0   2.0   424242   ###Langevin integrator Tstart Tstop 1/friction rndseed

compute ekin all ke
compute epot all pe
variable ekin equal c_ekin
variable epot equal c_epot
variable etot equal c_ekin+c_epot

fix 5 all print 1000 "$(step)  ekin = ${ekin} | epot = ${epot} | etot = ${etot}" screen yes

##### Sample thermodynamic info  (temperature, energy, pressure, etc.) #####
#thermo 10000
#thermo_style   custom   step  temp  epair  emol  press pxx pyy pzz  vol
############################################################################

###
# set timestep of integrator
###
timestep 0.0001 #0.012

###
# run integration for a number of steps
###
run 250000
WARNING: No pairwise cutoff or binsize set. Atom sorting therefore disabled. (../atom.cpp:2388)
WARNING: Communication cutoff is 0.0. No ghost atoms will be generated. Atoms may get lost. (../comm_brick.cpp:210)
0  ekin = 1.56249993015099 | epot = 0 | etot = 1.56249993015099
Per MPI rank memory allocation (min/avg/max) = 4.415 | 4.415 | 4.415 Mbytes
   Step          Temp          E_pair         E_mol          TotEng         Press     
         0   0.11574074     0              0              0.15624999     0.0052083331 
1000  ekin = 1.56249993015099 | epot = 0 | etot = 1.56249993015099
2000  ekin = 1.56249993015099 | epot = 0 | etot = 1.56249993015099
3000  ekin = 1.56249993015099 | epot = 0 | etot = 1.56249993015099
4000  ekin = 1.56249993015099 | epot = 0 | etot = 1.56249993015099
5000  ekin = 1.56249993015099 | epot = 0 | etot = 1.56249993015099
6000  ekin = 1.56249993015099 | epot = 0 | etot = 1.56249993015099
7000  ekin = 1.56249993015099 | epot = 0 | etot = 1.56249993015099
8000  ekin = 1.56249993015099 | epot = 0 | etot = 1.56249993015099
9000  ekin = 1.56249993015099 | epot = 0 | etot = 1.56249993015099
10000  ekin = 1.56249993015099 | epot = 0 | etot = 1.56249993015099
11000  ekin = 1.56249993015099 | epot = 0 | etot = 1.56249993015099
12000  ekin = 1.56249993015099 | epot = 0 | etot = 1.56249993015099
13000  ekin = 1.56249993015099 | epot = 0 | etot = 1.56249993015099
14000  ekin = 1.56249993015099 | epot = 0 | etot = 1.56249993015099
15000  ekin = 1.56249993015099 | epot = 0 | etot = 1.56249993015099
16000  ekin = 1.56249993015099 | epot = 0 | etot = 1.56249993015099
17000  ekin = 1.56249993015099 | epot = 0 | etot = 1.56249993015099
18000  ekin = 1.56249993015099 | epot = 0 | etot = 1.56249993015099
19000  ekin = 1.56249993015099 | epot = 0 | etot = 1.56249993015099
20000  ekin = 1.56249993015099 | epot = 0 | etot = 1.56249993015099
21000  ekin = 1.56249993015099 | epot = 0 | etot = 1.56249993015099
22000  ekin = 1.56249993015099 | epot = 0 | etot = 1.56249993015099
23000  ekin = 1.56249993015099 | epot = 0 | etot = 1.56249993015099
24000  ekin = 1.56249993015099 | epot = 0 | etot = 1.56249993015099
25000  ekin = 1.56249993015099 | epot = 0 | etot = 1.56249993015099
26000  ekin = 1.56249993015099 | epot = 0 | etot = 1.56249993015099
27000  ekin = 1.56249993015099 | epot = 0 | etot = 1.56249993015099
28000  ekin = 1.56249993015099 | epot = 0 | etot = 1.56249993015099
29000  ekin = 1.56249993015099 | epot = 0 | etot = 1.56249993015099
30000  ekin = 1.56249993015099 | epot = 0 | etot = 1.56249993015099
31000  ekin = 1.56249993015099 | epot = 0 | etot = 1.56249993015099
32000  ekin = 1.56249993015099 | epot = 0 | etot = 1.56249993015099
33000  ekin = 1.56249993015099 | epot = 0 | etot = 1.56249993015099
34000  ekin = 1.56249993015099 | epot = 0 | etot = 1.56249993015099
35000  ekin = 1.56249993015099 | epot = 0 | etot = 1.56249993015099
36000  ekin = 1.56249993015099 | epot = 0 | etot = 1.56249993015099
37000  ekin = 1.56249993015099 | epot = 0 | etot = 1.56249993015099
38000  ekin = 1.56249993015099 | epot = 0 | etot = 1.56249993015099
39000  ekin = 1.56249993015099 | epot = 0 | etot = 1.56249993015099
40000  ekin = 1.56249993015099 | epot = 0 | etot = 1.56249993015099
41000  ekin = 1.56249993015099 | epot = 0 | etot = 1.56249993015099
42000  ekin = 1.56249993015099 | epot = 0 | etot = 1.56249993015099
43000  ekin = 1.56249993015099 | epot = 0 | etot = 1.56249993015099
44000  ekin = 1.56249993015099 | epot = 0 | etot = 1.56249993015099
45000  ekin = 1.56249993015099 | epot = 0 | etot = 1.56249993015099
46000  ekin = 1.56249993015099 | epot = 0 | etot = 1.56249993015099
47000  ekin = 1.56249993015099 | epot = 0 | etot = 1.56249993015099
48000  ekin = 1.56249993015099 | epot = 0 | etot = 1.56249993015099
49000  ekin = 1.56249993015099 | epot = 0 | etot = 1.56249993015099
50000  ekin = 1.56249993015099 | epot = 0 | etot = 1.56249993015099
51000  ekin = 1.56249993015099 | epot = 0 | etot = 1.56249993015099
52000  ekin = 1.56249993015099 | epot = 0 | etot = 1.56249993015099
53000  ekin = 1.56249993015099 | epot = 0 | etot = 1.56249993015099
54000  ekin = 1.56249993015099 | epot = 0 | etot = 1.56249993015099
55000  ekin = 1.56249993015099 | epot = 0 | etot = 1.56249993015099
56000  ekin = 1.56249993015099 | epot = 0 | etot = 1.56249993015099
57000  ekin = 1.56249993015099 | epot = 0 | etot = 1.56249993015099
58000  ekin = 1.56249993015099 | epot = 0 | etot = 1.56249993015099
59000  ekin = 1.56249993015099 | epot = 0 | etot = 1.56249993015099
60000  ekin = 1.56249993015099 | epot = 0 | etot = 1.56249993015099
61000  ekin = 1.56249993015099 | epot = 0 | etot = 1.56249993015099
62000  ekin = 1.56249993015099 | epot = 0 | etot = 1.56249993015099
63000  ekin = 1.56249993015099 | epot = 0 | etot = 1.56249993015099
64000  ekin = 1.56249993015099 | epot = 0 | etot = 1.56249993015099
65000  ekin = 1.56249993015099 | epot = 0 | etot = 1.56249993015099
66000  ekin = 1.56249993015099 | epot = 0 | etot = 1.56249993015099
67000  ekin = 1.56249993015099 | epot = 0 | etot = 1.56249993015099
68000  ekin = 1.56249993015099 | epot = 0 | etot = 1.56249993015099
69000  ekin = 1.56249993015099 | epot = 0 | etot = 1.56249993015099
70000  ekin = 1.56249993015099 | epot = 0 | etot = 1.56249993015099
71000  ekin = 1.56249993015099 | epot = 0 | etot = 1.56249993015099
72000  ekin = 1.56249993015099 | epot = 0 | etot = 1.56249993015099
73000  ekin = 1.56249993015099 | epot = 0 | etot = 1.56249993015099
74000  ekin = 1.56249993015099 | epot = 0 | etot = 1.56249993015099
75000  ekin = 1.56249993015099 | epot = 0 | etot = 1.56249993015099
76000  ekin = 1.56249993015099 | epot = 0 | etot = 1.56249993015099
77000  ekin = 1.56249993015099 | epot = 0 | etot = 1.56249993015099
78000  ekin = 1.56249993015099 | epot = 0 | etot = 1.56249993015099
79000  ekin = 1.56249993015099 | epot = 0 | etot = 1.56249993015099
80000  ekin = 1.56249993015099 | epot = 0 | etot = 1.56249993015099
81000  ekin = 1.56249993015099 | epot = 0 | etot = 1.56249993015099
82000  ekin = 1.56249993015099 | epot = 0 | etot = 1.56249993015099
83000  ekin = 1.56249993015099 | epot = 0 | etot = 1.56249993015099
84000  ekin = 1.56249993015099 | epot = 0 | etot = 1.56249993015099
85000  ekin = 1.56249993015099 | epot = 0 | etot = 1.56249993015099
86000  ekin = 1.56249993015099 | epot = 0 | etot = 1.56249993015099
87000  ekin = 1.56249993015099 | epot = 0 | etot = 1.56249993015099
88000  ekin = 1.56249993015099 | epot = 0 | etot = 1.56249993015099
89000  ekin = 1.56249993015099 | epot = 0 | etot = 1.56249993015099
90000  ekin = 1.56249993015099 | epot = 0 | etot = 1.56249993015099
91000  ekin = 1.56249993015099 | epot = 0 | etot = 1.56249993015099
92000  ekin = 1.56249993015099 | epot = 0 | etot = 1.56249993015099
93000  ekin = 1.56249993015099 | epot = 0 | etot = 1.56249993015099
94000  ekin = 1.56249993015099 | epot = 0 | etot = 1.56249993015099
95000  ekin = 1.56249993015099 | epot = 0 | etot = 1.56249993015099
96000  ekin = 1.56249993015099 | epot = 0 | etot = 1.56249993015099
97000  ekin = 1.56249993015099 | epot = 0 | etot = 1.56249993015099
98000  ekin = 1.56249993015099 | epot = 0 | etot = 1.56249993015099
99000  ekin = 1.56249993015099 | epot = 0 | etot = 1.56249993015099
100000  ekin = 1.56249993015099 | epot = 0 | etot = 1.56249993015099
101000  ekin = 1.56249993015099 | epot = 0 | etot = 1.56249993015099
102000  ekin = 1.56249993015099 | epot = 0 | etot = 1.56249993015099
103000  ekin = 1.56249993015099 | epot = 0 | etot = 1.56249993015099
104000  ekin = 1.56249993015099 | epot = 0 | etot = 1.56249993015099
105000  ekin = 1.56249993015099 | epot = 0 | etot = 1.56249993015099
106000  ekin = 1.56249993015099 | epot = 0 | etot = 1.56249993015099
107000  ekin = 1.56249993015099 | epot = 0 | etot = 1.56249993015099
108000  ekin = 1.56249993015099 | epot = 0 | etot = 1.56249993015099
109000  ekin = 1.56249993015099 | epot = 0 | etot = 1.56249993015099
110000  ekin = 1.56249993015099 | epot = 0 | etot = 1.56249993015099
111000  ekin = 1.56249993015099 | epot = 0 | etot = 1.56249993015099
112000  ekin = 1.56249993015099 | epot = 0 | etot = 1.56249993015099
113000  ekin = 1.56249993015099 | epot = 0 | etot = 1.56249993015099
114000  ekin = 1.56249993015099 | epot = 0 | etot = 1.56249993015099
115000  ekin = 1.56249993015099 | epot = 0 | etot = 1.56249993015099
116000  ekin = 1.56249993015099 | epot = 0 | etot = 1.56249993015099
117000  ekin = 1.56249993015099 | epot = 0 | etot = 1.56249993015099
118000  ekin = 1.56249993015099 | epot = 0 | etot = 1.56249993015099
119000  ekin = 1.56249993015099 | epot = 0 | etot = 1.56249993015099
120000  ekin = 1.56249993015099 | epot = 0 | etot = 1.56249993015099
121000  ekin = 1.56249993015099 | epot = 0 | etot = 1.56249993015099
122000  ekin = 1.56249993015099 | epot = 0 | etot = 1.56249993015099
123000  ekin = 1.56249993015099 | epot = 0 | etot = 1.56249993015099
124000  ekin = 1.56249993015099 | epot = 0 | etot = 1.56249993015099
125000  ekin = 1.56249993015099 | epot = 0 | etot = 1.56249993015099
126000  ekin = 1.56249993015099 | epot = 0 | etot = 1.56249993015099
127000  ekin = 1.56249993015099 | epot = 0 | etot = 1.56249993015099
128000  ekin = 1.56249993015099 | epot = 0 | etot = 1.56249993015099
129000  ekin = 1.56249993015099 | epot = 0 | etot = 1.56249993015099
130000  ekin = 1.56249993015099 | epot = 0 | etot = 1.56249993015099
131000  ekin = 1.56249993015099 | epot = 0 | etot = 1.56249993015099
132000  ekin = 1.56249993015099 | epot = 0 | etot = 1.56249993015099
133000  ekin = 1.56249993015099 | epot = 0 | etot = 1.56249993015099
134000  ekin = 1.56249993015099 | epot = 0 | etot = 1.56249993015099
135000  ekin = 1.56249993015099 | epot = 0 | etot = 1.56249993015099
136000  ekin = 1.56249993015099 | epot = 0 | etot = 1.56249993015099
137000  ekin = 1.56249993015099 | epot = 0 | etot = 1.56249993015099
138000  ekin = 1.56249993015099 | epot = 0 | etot = 1.56249993015099
139000  ekin = 1.56249993015099 | epot = 0 | etot = 1.56249993015099
140000  ekin = 1.56249993015099 | epot = 0 | etot = 1.56249993015099
141000  ekin = 1.56249993015099 | epot = 0 | etot = 1.56249993015099
142000  ekin = 1.56249993015099 | epot = 0 | etot = 1.56249993015099
143000  ekin = 1.56249993015099 | epot = 0 | etot = 1.56249993015099
144000  ekin = 1.56249993015099 | epot = 0 | etot = 1.56249993015099
145000  ekin = 1.56249993015099 | epot = 0 | etot = 1.56249993015099
146000  ekin = 1.56249993015099 | epot = 0 | etot = 1.56249993015099
147000  ekin = 1.56249993015099 | epot = 0 | etot = 1.56249993015099
148000  ekin = 1.56249993015099 | epot = 0 | etot = 1.56249993015099
149000  ekin = 1.56249993015099 | epot = 0 | etot = 1.56249993015099
150000  ekin = 1.56249993015099 | epot = 0 | etot = 1.56249993015099
151000  ekin = 1.56249993015099 | epot = 0 | etot = 1.56249993015099
152000  ekin = 1.56249993015099 | epot = 0 | etot = 1.56249993015099
153000  ekin = 1.56249993015099 | epot = 0 | etot = 1.56249993015099
154000  ekin = 1.56249993015099 | epot = 0 | etot = 1.56249993015099
155000  ekin = 1.56249993015099 | epot = 0 | etot = 1.56249993015099
156000  ekin = 1.56249993015099 | epot = 0 | etot = 1.56249993015099
157000  ekin = 1.56249993015099 | epot = 0 | etot = 1.56249993015099
158000  ekin = 1.56249993015099 | epot = 0 | etot = 1.56249993015099
159000  ekin = 1.56249993015099 | epot = 0 | etot = 1.56249993015099
160000  ekin = 1.56249993015099 | epot = 0 | etot = 1.56249993015099
161000  ekin = 1.56249993015099 | epot = 0 | etot = 1.56249993015099
162000  ekin = 1.56249993015099 | epot = 0 | etot = 1.56249993015099
163000  ekin = 1.56249993015099 | epot = 0 | etot = 1.56249993015099
164000  ekin = 1.56249993015099 | epot = 0 | etot = 1.56249993015099
165000  ekin = 1.56249993015099 | epot = 0 | etot = 1.56249993015099
166000  ekin = 1.56249993015099 | epot = 0 | etot = 1.56249993015099
167000  ekin = 1.56249993015099 | epot = 0 | etot = 1.56249993015099
168000  ekin = 1.56249993015099 | epot = 0 | etot = 1.56249993015099
169000  ekin = 1.56249993015099 | epot = 0 | etot = 1.56249993015099
170000  ekin = 1.56249993015099 | epot = 0 | etot = 1.56249993015099
171000  ekin = 1.56249993015099 | epot = 0 | etot = 1.56249993015099
172000  ekin = 1.56249993015099 | epot = 0 | etot = 1.56249993015099
173000  ekin = 1.56249993015099 | epot = 0 | etot = 1.56249993015099
174000  ekin = 1.56249993015099 | epot = 0 | etot = 1.56249993015099
175000  ekin = 1.56249993015099 | epot = 0 | etot = 1.56249993015099
176000  ekin = 1.56249993015099 | epot = 0 | etot = 1.56249993015099
177000  ekin = 1.56249993015099 | epot = 0 | etot = 1.56249993015099
178000  ekin = 1.56249993015099 | epot = 0 | etot = 1.56249993015099
179000  ekin = 1.56249993015099 | epot = 0 | etot = 1.56249993015099
180000  ekin = 1.56249993015099 | epot = 0 | etot = 1.56249993015099
181000  ekin = 1.56249993015099 | epot = 0 | etot = 1.56249993015099
182000  ekin = 1.56249993015099 | epot = 0 | etot = 1.56249993015099
183000  ekin = 1.56249993015099 | epot = 0 | etot = 1.56249993015099
184000  ekin = 1.56249993015099 | epot = 0 | etot = 1.56249993015099
185000  ekin = 1.56249993015099 | epot = 0 | etot = 1.56249993015099
186000  ekin = 1.56249993015099 | epot = 0 | etot = 1.56249993015099
187000  ekin = 1.56249993015099 | epot = 0 | etot = 1.56249993015099
188000  ekin = 1.56249993015099 | epot = 0 | etot = 1.56249993015099
189000  ekin = 1.56249993015099 | epot = 0 | etot = 1.56249993015099
190000  ekin = 1.56249993015099 | epot = 0 | etot = 1.56249993015099
191000  ekin = 1.56249993015099 | epot = 0 | etot = 1.56249993015099
192000  ekin = 1.56249993015099 | epot = 0 | etot = 1.56249993015099
193000  ekin = 1.56249993015099 | epot = 0 | etot = 1.56249993015099
194000  ekin = 1.56249993015099 | epot = 0 | etot = 1.56249993015099
195000  ekin = 1.56249993015099 | epot = 0 | etot = 1.56249993015099
196000  ekin = 1.56249993015099 | epot = 0 | etot = 1.56249993015099
197000  ekin = 1.56249993015099 | epot = 0 | etot = 1.56249993015099
198000  ekin = 1.56249993015099 | epot = 0 | etot = 1.56249993015099
199000  ekin = 1.56249993015099 | epot = 0 | etot = 1.56249993015099
200000  ekin = 1.56249993015099 | epot = 0 | etot = 1.56249993015099
201000  ekin = 1.56249993015099 | epot = 0 | etot = 1.56249993015099
202000  ekin = 1.56249993015099 | epot = 0 | etot = 1.56249993015099
203000  ekin = 1.56249993015099 | epot = 0 | etot = 1.56249993015099
204000  ekin = 1.56249993015099 | epot = 0 | etot = 1.56249993015099
205000  ekin = 1.56249993015099 | epot = 0 | etot = 1.56249993015099
206000  ekin = 1.56249993015099 | epot = 0 | etot = 1.56249993015099
207000  ekin = 1.56249993015099 | epot = 0 | etot = 1.56249993015099
208000  ekin = 1.56249993015099 | epot = 0 | etot = 1.56249993015099
209000  ekin = 1.56249993015099 | epot = 0 | etot = 1.56249993015099
210000  ekin = 1.56249993015099 | epot = 0 | etot = 1.56249993015099
211000  ekin = 1.56249993015099 | epot = 0 | etot = 1.56249993015099
212000  ekin = 1.56249993015099 | epot = 0 | etot = 1.56249993015099
213000  ekin = 1.56249993015099 | epot = 0 | etot = 1.56249993015099
214000  ekin = 1.56249993015099 | epot = 0 | etot = 1.56249993015099
215000  ekin = 1.56249993015099 | epot = 0 | etot = 1.56249993015099
216000  ekin = 1.56249993015099 | epot = 0 | etot = 1.56249993015099
217000  ekin = 1.56249993015099 | epot = 0 | etot = 1.56249993015099
218000  ekin = 1.56249993015099 | epot = 0 | etot = 1.56249993015099
219000  ekin = 1.56249993015099 | epot = 0 | etot = 1.56249993015099
220000  ekin = 1.56249993015099 | epot = 0 | etot = 1.56249993015099
221000  ekin = 1.56249993015099 | epot = 0 | etot = 1.56249993015099
222000  ekin = 1.56249993015099 | epot = 0 | etot = 1.56249993015099
223000  ekin = 1.56249993015099 | epot = 0 | etot = 1.56249993015099
224000  ekin = 1.56249993015099 | epot = 0 | etot = 1.56249993015099
225000  ekin = 1.56249993015099 | epot = 0 | etot = 1.56249993015099
226000  ekin = 1.56249993015099 | epot = 0 | etot = 1.56249993015099
227000  ekin = 1.56249993015099 | epot = 0 | etot = 1.56249993015099
228000  ekin = 1.56249993015099 | epot = 0 | etot = 1.56249993015099
229000  ekin = 1.56249993015099 | epot = 0 | etot = 1.56249993015099
230000  ekin = 1.56249993015099 | epot = 0 | etot = 1.56249993015099
231000  ekin = 1.56249993015099 | epot = 0 | etot = 1.56249993015099
232000  ekin = 1.56249993015099 | epot = 0 | etot = 1.56249993015099
233000  ekin = 1.56249993015099 | epot = 0 | etot = 1.56249993015099
234000  ekin = 1.56249993015099 | epot = 0 | etot = 1.56249993015099
235000  ekin = 1.56249993015099 | epot = 0 | etot = 1.56249993015099
236000  ekin = 1.56249993015099 | epot = 0 | etot = 1.56249993015099
237000  ekin = 1.56249993015099 | epot = 0 | etot = 1.56249993015099
238000  ekin = 1.56249993015099 | epot = 0 | etot = 1.56249993015099
239000  ekin = 1.56249993015099 | epot = 0 | etot = 1.56249993015099
240000  ekin = 1.56249993015099 | epot = 0 | etot = 1.56249993015099
241000  ekin = 1.56249993015099 | epot = 0 | etot = 1.56249993015099
242000  ekin = 1.56249993015099 | epot = 0 | etot = 1.56249993015099
243000  ekin = 1.56249993015099 | epot = 0 | etot = 1.56249993015099
244000  ekin = 1.56249993015099 | epot = 0 | etot = 1.56249993015099
245000  ekin = 1.56249993015099 | epot = 0 | etot = 1.56249993015099
246000  ekin = 1.56249993015099 | epot = 0 | etot = 1.56249993015099
247000  ekin = 1.56249993015099 | epot = 0 | etot = 1.56249993015099
248000  ekin = 1.56249993015099 | epot = 0 | etot = 1.56249993015099
249000  ekin = 1.56249993015099 | epot = 0 | etot = 1.56249993015099
250000  ekin = 1.56249993015099 | epot = 0 | etot = 1.56249993015099
    250000   0.11574074     0              0              0.15624999     0.0052083331 
Loop time of 1.85781 on 2 procs for 250000 steps with 10 atoms

Performance: 1162659.594 tau/day, 134567.083 timesteps/s, 1.346 Matom-step/s
99.9% CPU use with 2 MPI tasks x 1 OpenMP threads

MPI task timing breakdown:
Section |  min time  |  avg time  |  max time  |%varavg| %total
---------------------------------------------------------------
Pair    | 0          | 0          | 0          |   0.0 |  0.00
Neigh   | 1.212e-06  | 1.227e-06  | 1.242e-06  |   0.0 |  0.00
Comm    | 0.83711    | 0.83958    | 0.84205    |   0.3 | 45.19
Output  | 0.0020723  | 0.0022828  | 0.0024932  |   0.4 |  0.12
Modify  | 0.62593    | 0.62632    | 0.62672    |   0.0 | 33.71
Other   |            | 0.3896     |            |       | 20.97

Nlocal:              5 ave           6 max           4 min
Histogram: 1 0 0 0 0 0 0 0 0 1
Nghost:              0 ave           0 max           0 min
Histogram: 2 0 0 0 0 0 0 0 0 0
Neighs:              0 ave           0 max           0 min
Histogram: 2 0 0 0 0 0 0 0 0 0

Total # of neighbors = 0
Ave neighs/atom = 0
Neighbor list builds = 1
Dangerous builds = 0

write_data data_out.* nocoeff
System init for write_data ...
WARNING: Communication cutoff is 0.0. No ghost atoms will be generated. Atoms may get lost. (../comm_brick.cpp:210)

Total wall time: 0:00:01
