LAMMPS (7 Feb 2024 - Development - patch_21Nov2023-1038-g7ee11f4804-modified)
KOKKOS mode with Kokkos version 4.2.0 is enabled (../kokkos.cpp:72)
package kokkos
package kokkos comm device
###
# Reference paper:
# K. Kremer and G. S. Grest
# Dynamics of entangled linear polymer melts: A molecular-dynamics simulation
# J Chem Phys 92, 5057 (1990)
###

###
# Box and units  (use LJ units and periodic boundaries)
###

units lj

atom_style ellipsoid

boundary        p p p

###
# Pair interactions require lists of neighbours to be calculated
###
neighbor 3.0 bin
neigh_modify every 1 delay 0 check yes

### Generate RESTART file, SPECIAL format, not a .txt file ###
### Useful if simulation crashes ###
#restart 10000 polymer.restart
#############################

#processors 2 1 1

### READ "REstart" data file ###
#read_restart polymer.restart.10000
######################

read_data lmp_data
Reading data file ...
  orthogonal box = (3 -4 -7) to (8 0 3)
  1 by 1 by 2 MPI processor grid
  reading atoms ...
  10 atoms
  reading velocities ...
  10 velocities
  10 ellipsoids
  read_data CPU = 0.007 seconds

### reset timestep ###
reset_timestep 0
######################

###
# Define groups (atom type 1 is group 'all')
###
group all type 1
10 atoms in group all
group polymer type 1
10 atoms in group polymer

###
# Dump configs - "simple dumpings"
###

###
# Dump configs + box coords
###
#dump   1   all   custom   100000   polymer.dump.*  id  x y z  ix iy iz
#dump_modify   1   format line "%d %.5f %.5f %.5f %d %d %d"
dump   id all atom 1000 dump.polymer

###################################################################
# Stiffness term
#
# E = K * (theta-thera0)**2, K>0
#
#angle_style   harmonic
#angle_coeff   1 2.0 120.0
###################################################################

###################################################################
# Pair interaction between non-bonded atoms
#
#  Lennard-Jones 12-6 potential with cutoff:
#  potential E=4epsilon[ (sigma/r)^12 - (sigma/r)^6]  for r<r_cut
#
#  1.12246152962189 = 2^(1/6) is the minimum of the potential

pair_style      lj/cut 1.12246152962189

#
#  pair_coeff for lj/cut, specify 4:
#    * atom type interacting with
#    * atom type
#    * epsilon (energy units)
#    * sigma (distance units)
#

pair_coeff      1 1 1.0 1.1

#
#  pair_modify shift yes adds a constant to the potential such
#  that E(r_cut)=0. Forces remains unchanged.
#

pair_modify     shift yes

###################################################

#comm_modify cutoff 6
#comm_style tiled
#balance 1.2 rcb

###
# Set up fixes
###

fix 1 all   nve   ###NVE ensemble
#fix 2 all   langevin   1.0 1.0   2.0   424242   ###Langevin integrator Tstart Tstop 1/friction rndseed

compute ekin all ke
compute epot all pe
variable ekin equal c_ekin
variable epot equal c_epot
variable etot equal c_ekin+c_epot

fix 5 all print 1000 "$(step)  ekin = ${ekin} | epot = ${epot} | etot = ${etot}" screen yes

##### Sample thermodynamic info  (temperature, energy, pressure, etc.) #####
#thermo 10000
#thermo_style   custom   step  temp  epair  emol  press pxx pyy pzz  vol
############################################################################

###
# set timestep of integrator
###
timestep 0.0001 #0.012

###
# run integration for a number of steps
###
run 250000
Generated 0 of 0 mixed pair_coeff terms from geometric mixing rule
Neighbor list info ...
  update: every = 1 steps, delay = 0 steps, check = yes
  max neighbors/atom: 2000, page size: 100000
  master list distance cutoff = 4.1224615
  ghost atom cutoff = 4.1224615
  binsize = 2.0612308, bins = 3 2 5
  1 neighbor lists, perpetual/occasional/extra = 1 0 0
  (1) pair lj/cut/kk, perpetual
      attributes: half, newton on, kokkos_device
      pair build: half/bin/newton/kk/device
      stencil: half/bin/3d
      bin: kk/device
0  ekin = 0 | epot = 24.5770897640616 | etot = 24.5770897640616
Per MPI rank memory allocation (min/avg/max) = 5.25 | 5.25 | 5.25 Mbytes
   Step          Temp          E_pair         E_mol          TotEng         Press     
         0   0              2.457709       0              2.457709       0.8048628    
1000  ekin = 9.25963003325883 | epot = 15.3174576893845 | etot = 24.5770877226433
2000  ekin = 16.7536424303031 | epot = 7.82360595988138 | etot = 24.5772483901845
3000  ekin = 17.4749231741024 | epot = 7.10257695841128 | etot = 24.5775001325137
4000  ekin = 19.0309121012284 | epot = 5.54633723630281 | etot = 24.5772493375312
5000  ekin = 20.6144917609157 | epot = 3.96288787772505 | etot = 24.5773796386408
6000  ekin = 21.3609543816129 | epot = 3.21641017153051 | etot = 24.5773645531435
7000  ekin = 22.5853640638196 | epot = 1.9918223765681 | etot = 24.5771864403877
8000  ekin = 24.1034451933506 | epot = 0.47351912427401 | etot = 24.5769643176246
9000  ekin = 24.0565951804984 | epot = 0.520700300347535 | etot = 24.577295480846
10000  ekin = 22.6191357318236 | epot = 1.95800979062758 | etot = 24.5771455224512
11000  ekin = 20.3514312962637 | epot = 4.22571430112387 | etot = 24.5771455973876
12000  ekin = 18.9802686279943 | epot = 5.59687712512303 | etot = 24.5771457531174
13000  ekin = 20.3295468475212 | epot = 4.24759874972612 | etot = 24.5771455972473
14000  ekin = 22.575519992538 | epot = 2.00162553442167 | etot = 24.5771455269597
15000  ekin = 24.0462738126471 | epot = 0.531056755502191 | etot = 24.5773305681493
16000  ekin = 24.5774380689783 | epot = 0 | etot = 24.5774380689783
17000  ekin = 24.5774380689783 | epot = 0 | etot = 24.5774380689783
18000  ekin = 24.5774380689783 | epot = 0 | etot = 24.5774380689783
19000  ekin = 24.5774380689783 | epot = 0 | etot = 24.5774380689783
20000  ekin = 24.5774380689783 | epot = 0 | etot = 24.5774380689783
21000  ekin = 24.5774380689783 | epot = 0 | etot = 24.5774380689783
22000  ekin = 24.5774380689783 | epot = 0 | etot = 24.5774380689783
23000  ekin = 24.5774380689783 | epot = 0 | etot = 24.5774380689783
24000  ekin = 24.5774380689783 | epot = 0 | etot = 24.5774380689783
25000  ekin = 24.5774380689783 | epot = 0 | etot = 24.5774380689783
26000  ekin = 24.5774380689783 | epot = 0 | etot = 24.5774380689783
27000  ekin = 24.5774380689783 | epot = 0 | etot = 24.5774380689783
28000  ekin = 24.5774380689783 | epot = 0 | etot = 24.5774380689783
29000  ekin = 24.5774380689783 | epot = 0 | etot = 24.5774380689783
30000  ekin = 24.5774380689783 | epot = 0 | etot = 24.5774380689783
31000  ekin = 24.5774380689783 | epot = 0 | etot = 24.5774380689783
32000  ekin = 24.5774380689783 | epot = 0 | etot = 24.5774380689783
33000  ekin = 24.5774380689783 | epot = 0 | etot = 24.5774380689783
34000  ekin = 24.5774380689783 | epot = 0 | etot = 24.5774380689783
35000  ekin = 24.5774380689783 | epot = 0 | etot = 24.5774380689783
36000  ekin = 24.5774380689783 | epot = 0 | etot = 24.5774380689783
37000  ekin = 24.5774380689783 | epot = 0 | etot = 24.5774380689783
38000  ekin = 24.5774380689783 | epot = 0 | etot = 24.5774380689783
39000  ekin = 24.5774380689783 | epot = 0 | etot = 24.5774380689783
40000  ekin = 24.5774380689783 | epot = 0 | etot = 24.5774380689783
41000  ekin = 24.5774380689783 | epot = 0 | etot = 24.5774380689783
42000  ekin = 24.5774380689783 | epot = 0 | etot = 24.5774380689783
43000  ekin = 24.5774380689783 | epot = 0 | etot = 24.5774380689783
44000  ekin = 24.5774380689783 | epot = 0 | etot = 24.5774380689783
45000  ekin = 24.5774380689783 | epot = 0 | etot = 24.5774380689783
46000  ekin = 24.5774380689783 | epot = 0 | etot = 24.5774380689783
47000  ekin = 24.5774380689783 | epot = 0 | etot = 24.5774380689783
48000  ekin = 24.5774380689783 | epot = 0 | etot = 24.5774380689783
49000  ekin = 24.5774380689783 | epot = 0 | etot = 24.5774380689783
50000  ekin = 24.5774380689783 | epot = 0 | etot = 24.5774380689783
51000  ekin = 24.5774380689783 | epot = 0 | etot = 24.5774380689783
52000  ekin = 24.5774380689783 | epot = 0 | etot = 24.5774380689783
53000  ekin = 24.5774380689783 | epot = 0 | etot = 24.5774380689783
54000  ekin = 24.5774380689783 | epot = 0 | etot = 24.5774380689783
55000  ekin = 24.5774380689783 | epot = 0 | etot = 24.5774380689783
56000  ekin = 24.5774380689783 | epot = 0 | etot = 24.5774380689783
57000  ekin = 24.5774380689783 | epot = 0 | etot = 24.5774380689783
58000  ekin = 24.5774380689783 | epot = 0 | etot = 24.5774380689783
59000  ekin = 24.5774380689783 | epot = 0 | etot = 24.5774380689783
60000  ekin = 24.5774380689783 | epot = 0 | etot = 24.5774380689783
61000  ekin = 24.5774380689783 | epot = 0 | etot = 24.5774380689783
62000  ekin = 24.5774380689783 | epot = 0 | etot = 24.5774380689783
63000  ekin = 24.5774380689783 | epot = 0 | etot = 24.5774380689783
64000  ekin = 24.5774380689783 | epot = 0 | etot = 24.5774380689783
65000  ekin = 24.5774380689783 | epot = 0 | etot = 24.5774380689783
66000  ekin = 24.5774380689783 | epot = 0 | etot = 24.5774380689783
67000  ekin = 24.5774380689783 | epot = 0 | etot = 24.5774380689783
68000  ekin = 24.5774380689783 | epot = 0 | etot = 24.5774380689783
69000  ekin = 24.5774380689783 | epot = 0 | etot = 24.5774380689783
70000  ekin = 24.5774380689783 | epot = 0 | etot = 24.5774380689783
71000  ekin = 24.5774380689783 | epot = 0 | etot = 24.5774380689783
72000  ekin = 24.5774380689783 | epot = 0 | etot = 24.5774380689783
73000  ekin = 24.396526778027 | epot = 0.180683457816106 | etot = 24.5772102358432
74000  ekin = 23.7004882627367 | epot = 0.876722025410025 | etot = 24.5772102881468
75000  ekin = 23.5672338293515 | epot = 1.00997647317611 | etot = 24.5772103025277
76000  ekin = 24.165945770346 | epot = 0.411264478388876 | etot = 24.5772102487348
77000  ekin = 24.577241289726 | epot = 0 | etot = 24.577241289726
78000  ekin = 24.577241289726 | epot = 0 | etot = 24.577241289726
79000  ekin = 24.577241289726 | epot = 0 | etot = 24.577241289726
80000  ekin = 24.577241289726 | epot = 0 | etot = 24.577241289726
81000  ekin = 24.577241289726 | epot = 0 | etot = 24.577241289726
82000  ekin = 24.577241289726 | epot = 0 | etot = 24.577241289726
83000  ekin = 24.577241289726 | epot = 0 | etot = 24.577241289726
84000  ekin = 24.577241289726 | epot = 0 | etot = 24.577241289726
85000  ekin = 24.577241289726 | epot = 0 | etot = 24.577241289726
86000  ekin = 24.512641689816 | epot = 0.0644773235076261 | etot = 24.5771190133236
87000  ekin = 23.5939222565362 | epot = 0.983196804419518 | etot = 24.5771190609557
88000  ekin = 23.0430565521198 | epot = 1.53406256778016 | etot = 24.5771191199
89000  ekin = 23.572190030306 | epot = 1.00492903256461 | etot = 24.5771190628706
90000  ekin = 24.4942142919393 | epot = 0.0829047216412497 | etot = 24.5771190135805
91000  ekin = 24.5768080264327 | epot = 0 | etot = 24.5768080264327
92000  ekin = 24.5768080264327 | epot = 0 | etot = 24.5768080264327
93000  ekin = 24.5768080264327 | epot = 0 | etot = 24.5768080264327
94000  ekin = 24.5768080264327 | epot = 0 | etot = 24.5768080264327
95000  ekin = 24.5768080264327 | epot = 0 | etot = 24.5768080264327
96000  ekin = 24.5768080264327 | epot = 0 | etot = 24.5768080264327
97000  ekin = 24.5768080264327 | epot = 0 | etot = 24.5768080264327
98000  ekin = 24.5768080264327 | epot = 0 | etot = 24.5768080264327
99000  ekin = 24.5768080264327 | epot = 0 | etot = 24.5768080264327
100000  ekin = 24.5768080264327 | epot = 0 | etot = 24.5768080264327
101000  ekin = 24.5768080264327 | epot = 0 | etot = 24.5768080264327
102000  ekin = 24.5768080264327 | epot = 0 | etot = 24.5768080264327
103000  ekin = 24.5768080264327 | epot = 0 | etot = 24.5768080264327
104000  ekin = 24.5768080264327 | epot = 0 | etot = 24.5768080264327
105000  ekin = 24.5768080264327 | epot = 0 | etot = 24.5768080264327
106000  ekin = 24.5768080264327 | epot = 0 | etot = 24.5768080264327
107000  ekin = 24.5338973265114 | epot = 0.0430430039242573 | etot = 24.5769403304356
108000  ekin = 24.1265199119887 | epot = 0.45042044509123 | etot = 24.5769403570799
109000  ekin = 24.0699515623239 | epot = 0.506988799513444 | etot = 24.5769403618373
110000  ekin = 24.4232433448394 | epot = 0.153696991458939 | etot = 24.5769403362983
111000  ekin = 24.5770865981631 | epot = 0 | etot = 24.5770865981631
112000  ekin = 24.5770865981631 | epot = 0 | etot = 24.5770865981631
113000  ekin = 24.5770865981631 | epot = 0 | etot = 24.5770865981631
114000  ekin = 24.5770865981631 | epot = 0 | etot = 24.5770865981631
115000  ekin = 24.5770865981631 | epot = 0 | etot = 24.5770865981631
116000  ekin = 24.5770865981631 | epot = 0 | etot = 24.5770865981631
117000  ekin = 24.5770865981631 | epot = 0 | etot = 24.5770865981631
118000  ekin = 24.5770865981631 | epot = 0 | etot = 24.5770865981631
119000  ekin = 24.5770865981631 | epot = 0 | etot = 24.5770865981631
120000  ekin = 24.5770865981631 | epot = 0 | etot = 24.5770865981631
121000  ekin = 24.5770865981631 | epot = 0 | etot = 24.5770865981631
122000  ekin = 24.5770865981631 | epot = 0 | etot = 24.5770865981631
123000  ekin = 24.5770865981631 | epot = 0 | etot = 24.5770865981631
124000  ekin = 24.5770865981631 | epot = 0 | etot = 24.5770865981631
125000  ekin = 24.5770865981631 | epot = 0 | etot = 24.5770865981631
126000  ekin = 24.5770865981631 | epot = 0 | etot = 24.5770865981631
127000  ekin = 24.5770865981631 | epot = 0 | etot = 24.5770865981631
128000  ekin = 24.5770865981631 | epot = 0 | etot = 24.5770865981631
129000  ekin = 24.5770865981631 | epot = 0 | etot = 24.5770865981631
130000  ekin = 24.5770865981631 | epot = 0 | etot = 24.5770865981631
131000  ekin = 24.5770865981631 | epot = 0 | etot = 24.5770865981631
132000  ekin = 24.5770865981631 | epot = 0 | etot = 24.5770865981631
133000  ekin = 24.5770865981631 | epot = 0 | etot = 24.5770865981631
134000  ekin = 24.5770865981631 | epot = 0 | etot = 24.5770865981631
135000  ekin = 24.5770865981631 | epot = 0 | etot = 24.5770865981631
136000  ekin = 24.5770865981631 | epot = 0 | etot = 24.5770865981631
137000  ekin = 24.5770865981631 | epot = 0 | etot = 24.5770865981631
138000  ekin = 24.5770865981631 | epot = 0 | etot = 24.5770865981631
139000  ekin = 24.5770865981631 | epot = 0 | etot = 24.5770865981631
140000  ekin = 24.5770865981631 | epot = 0 | etot = 24.5770865981631
141000  ekin = 24.5770865981631 | epot = 0 | etot = 24.5770865981631
142000  ekin = 24.5770865981631 | epot = 0 | etot = 24.5770865981631
143000  ekin = 24.5770865981631 | epot = 0 | etot = 24.5770865981631
144000  ekin = 24.5770865981631 | epot = 0 | etot = 24.5770865981631
145000  ekin = 24.5770865981631 | epot = 0 | etot = 24.5770865981631
146000  ekin = 24.5770865981631 | epot = 0 | etot = 24.5770865981631
147000  ekin = 24.5770865981631 | epot = 0 | etot = 24.5770865981631
148000  ekin = 24.5770865981631 | epot = 0 | etot = 24.5770865981631
149000  ekin = 24.5770865981631 | epot = 0 | etot = 24.5770865981631
150000  ekin = 24.5770865981631 | epot = 0 | etot = 24.5770865981631
151000  ekin = 24.5770865981631 | epot = 0 | etot = 24.5770865981631
152000  ekin = 24.5770865981631 | epot = 0 | etot = 24.5770865981631
153000  ekin = 24.5770865981631 | epot = 0 | etot = 24.5770865981631
154000  ekin = 24.5770865981631 | epot = 0 | etot = 24.5770865981631
155000  ekin = 24.5770865981631 | epot = 0 | etot = 24.5770865981631
156000  ekin = 24.5617639257592 | epot = 0.0152970156123452 | etot = 24.5770609413715
157000  ekin = 23.7932346604635 | epot = 0.783826313730944 | etot = 24.5770609741944
158000  ekin = 23.2707641598188 | epot = 1.30629686120991 | etot = 24.5770610210287
159000  ekin = 23.5927669995894 | epot = 0.984293990347943 | etot = 24.5770609899373
160000  ekin = 23.7756771651305 | epot = 0.80132226015077 | etot = 24.5769994252812
161000  ekin = 23.178708175296 | epot = 1.3983322182615 | etot = 24.5770403935575
162000  ekin = 23.0044932071303 | epot = 1.57254719465765 | etot = 24.577040401788
163000  ekin = 23.7510296951395 | epot = 0.826010654486448 | etot = 24.577040349626
164000  ekin = 22.3195323032698 | epot = 2.25796626780244 | etot = 24.5774985710722
165000  ekin = 19.5848234955099 | epot = 4.99252478914084 | etot = 24.5773482846507
166000  ekin = 21.1502135784848 | epot = 3.42713440882516 | etot = 24.5773479873099
167000  ekin = 24.0087933117166 | epot = 0.568554540728025 | etot = 24.5773478524447
168000  ekin = 24.5768752799039 | epot = 0 | etot = 24.5768752799039
169000  ekin = 24.5768752799039 | epot = 0 | etot = 24.5768752799039
170000  ekin = 24.5768752799039 | epot = 0 | etot = 24.5768752799039
171000  ekin = 24.5768752799039 | epot = 0 | etot = 24.5768752799039
172000  ekin = 24.5768752799039 | epot = 0 | etot = 24.5768752799039
173000  ekin = 24.5768752799039 | epot = 0 | etot = 24.5768752799039
174000  ekin = 24.5768752799039 | epot = 0 | etot = 24.5768752799039
175000  ekin = 24.5768752799039 | epot = 0 | etot = 24.5768752799039
176000  ekin = 24.5768752799039 | epot = 0 | etot = 24.5768752799039
177000  ekin = 24.5768752799039 | epot = 0 | etot = 24.5768752799039
178000  ekin = 24.5768752799039 | epot = 0 | etot = 24.5768752799039
179000  ekin = 24.5768752799039 | epot = 0 | etot = 24.5768752799039
180000  ekin = 24.5768752799039 | epot = 0 | etot = 24.5768752799039
181000  ekin = 24.5768752799039 | epot = 0 | etot = 24.5768752799039
182000  ekin = 24.5768752799039 | epot = 0 | etot = 24.5768752799039
183000  ekin = 24.5768752799039 | epot = 0 | etot = 24.5768752799039
184000  ekin = 24.5768752799039 | epot = 0 | etot = 24.5768752799039
185000  ekin = 24.5768752799039 | epot = 0 | etot = 24.5768752799039
186000  ekin = 24.5768752799039 | epot = 0 | etot = 24.5768752799039
187000  ekin = 24.5768752799039 | epot = 0 | etot = 24.5768752799039
188000  ekin = 24.5768752799039 | epot = 0 | etot = 24.5768752799039
189000  ekin = 24.5768752799039 | epot = 0 | etot = 24.5768752799039
190000  ekin = 24.5026200444786 | epot = 0.0743103436374261 | etot = 24.5769303881161
191000  ekin = 24.5007420074813 | epot = 0.0761883807343043 | etot = 24.5769303882156
192000  ekin = 24.5769344222668 | epot = 0 | etot = 24.5769344222668
193000  ekin = 24.5769344222668 | epot = 0 | etot = 24.5769344222668
194000  ekin = 24.5769344222668 | epot = 0 | etot = 24.5769344222668
195000  ekin = 24.5769344222668 | epot = 0 | etot = 24.5769344222668
196000  ekin = 24.5769344222668 | epot = 0 | etot = 24.5769344222668
197000  ekin = 24.5769344222668 | epot = 0 | etot = 24.5769344222668
198000  ekin = 24.5769344222668 | epot = 0 | etot = 24.5769344222668
199000  ekin = 24.5769344222668 | epot = 0 | etot = 24.5769344222668
200000  ekin = 24.5769344222668 | epot = 0 | etot = 24.5769344222668
201000  ekin = 24.5769344222668 | epot = 0 | etot = 24.5769344222668
202000  ekin = 24.5769344222668 | epot = 0 | etot = 24.5769344222668
203000  ekin = 24.5769344222668 | epot = 0 | etot = 24.5769344222668
204000  ekin = 24.2296643868604 | epot = 0.347390127678914 | etot = 24.5770545145393
205000  ekin = 23.9782786806984 | epot = 0.598775849845833 | etot = 24.5770545305442
206000  ekin = 24.1155159437411 | epot = 0.46153857751965 | etot = 24.5770545212607
207000  ekin = 24.5166613863922 | epot = 0.0603931154253862 | etot = 24.5770545018175
208000  ekin = 24.5769538968058 | epot = 0 | etot = 24.5769538968058
209000  ekin = 24.5769538968058 | epot = 0 | etot = 24.5769538968058
210000  ekin = 24.5769538968058 | epot = 0 | etot = 24.5769538968058
211000  ekin = 24.5769538968058 | epot = 0 | etot = 24.5769538968058
212000  ekin = 24.529774921879 | epot = 0.0472601222869504 | etot = 24.577035044166
213000  ekin = 24.155369863111 | epot = 0.421665200588909 | etot = 24.5770350636999
214000  ekin = 24.0555886476449 | epot = 0.521446423002206 | etot = 24.5770350706471
215000  ekin = 24.3222150808529 | epot = 0.254819972837967 | etot = 24.5770350536909
216000  ekin = 24.2210540399041 | epot = 0.356191291546131 | etot = 24.5772453314502
217000  ekin = 22.7806953098459 | epot = 1.79655008548378 | etot = 24.5772453953297
218000  ekin = 21.4557812057263 | epot = 3.12174434757753 | etot = 24.5775255533038
219000  ekin = 21.789742322623 | epot = 2.78778315839818 | etot = 24.5775254810212
220000  ekin = 23.166754769989 | epot = 1.41077065595905 | etot = 24.577525425948
221000  ekin = 24.0579830399704 | epot = 0.519295896493975 | etot = 24.5772789364643
222000  ekin = 24.5771846541605 | epot = 0 | etot = 24.5771846541605
223000  ekin = 24.5771846541605 | epot = 0 | etot = 24.5771846541605
224000  ekin = 24.5771846541605 | epot = 0 | etot = 24.5771846541605
225000  ekin = 24.5771846541605 | epot = 0 | etot = 24.5771846541605
226000  ekin = 24.5771846541605 | epot = 0 | etot = 24.5771846541605
227000  ekin = 24.5771846541605 | epot = 0 | etot = 24.5771846541605
228000  ekin = 24.5771846541605 | epot = 0 | etot = 24.5771846541605
229000  ekin = 24.5771846541605 | epot = 0 | etot = 24.5771846541605
230000  ekin = 24.5771846541605 | epot = 0 | etot = 24.5771846541605
231000  ekin = 24.5771846541605 | epot = 0 | etot = 24.5771846541605
232000  ekin = 24.5771846541605 | epot = 0 | etot = 24.5771846541605
233000  ekin = 24.5771846541605 | epot = 0 | etot = 24.5771846541605
234000  ekin = 24.1052436550566 | epot = 0.471753837582582 | etot = 24.5769974926392
235000  ekin = 23.5376686137858 | epot = 1.03932892349626 | etot = 24.5769975372821
236000  ekin = 23.6324352989418 | epot = 0.944562229284914 | etot = 24.5769975282267
237000  ekin = 24.2778422287486 | epot = 0.299155255051565 | etot = 24.5769974838002
238000  ekin = 24.5770624080831 | epot = 0 | etot = 24.5770624080831
239000  ekin = 24.5770624080831 | epot = 0 | etot = 24.5770624080831
240000  ekin = 24.5770624080831 | epot = 0 | etot = 24.5770624080831
241000  ekin = 24.5770624080831 | epot = 0 | etot = 24.5770624080831
242000  ekin = 24.5770624080831 | epot = 0 | etot = 24.5770624080831
243000  ekin = 24.5770624080831 | epot = 0 | etot = 24.5770624080831
244000  ekin = 24.5770624080831 | epot = 0 | etot = 24.5770624080831
245000  ekin = 24.5770624080831 | epot = 0 | etot = 24.5770624080831
246000  ekin = 23.3891117751279 | epot = 1.18771286238991 | etot = 24.5768246375178
247000  ekin = 20.9252901605269 | epot = 3.65153471402052 | etot = 24.5768248745474
248000  ekin = 20.8530718265691 | epot = 3.72375306073702 | etot = 24.5768248873061
249000  ekin = 23.3062235280829 | epot = 1.27060111097171 | etot = 24.5768246390546
250000  ekin = 24.5769191527925 | epot = 0 | etot = 24.5769191527925
    250000   1.8205125      0              0              2.4576919      0.081923064  
Loop time of 10.2681 on 2 procs for 250000 steps with 10 atoms

Performance: 210359.291 tau/day, 24347.140 timesteps/s, 243.471 katom-step/s
99.6% CPU use with 2 MPI tasks x 1 OpenMP threads

MPI task timing breakdown:
Section |  min time  |  avg time  |  max time  |%varavg| %total
---------------------------------------------------------------
Pair    | 1.2497     | 1.2561     | 1.2625     |   0.6 | 12.23
Neigh   | 0.00029503 | 0.00033775 | 0.00038048 |   0.0 |  0.00
Comm    | 5.7716     | 5.7865     | 5.8013     |   0.6 | 56.35
Output  | 0.010044   | 0.04555    | 0.081057   |  16.6 |  0.44
Modify  | 1.4351     | 1.4662     | 1.4973     |   2.6 | 14.28
Other   |            | 1.713      |            |       | 16.69

Nlocal:              5 ave           7 max           3 min
Histogram: 1 0 0 0 0 0 0 0 0 1
Nghost:           98.5 ave         102 max          95 min
Histogram: 1 0 0 0 0 0 0 0 0 1
Neighs:           47.5 ave          87 max           8 min
Histogram: 1 0 0 0 0 0 0 0 0 1

Total # of neighbors = 95
Ave neighs/atom = 9.5
Neighbor list builds = 9
Dangerous builds = 0

write_data data_out.* nocoeff
System init for write_data ...
Generated 0 of 0 mixed pair_coeff terms from geometric mixing rule

Total wall time: 0:00:10
