LAMMPS (7 Feb 2024 - Development - patch_21Nov2023-1050-g88454931f9-modified)
KOKKOS mode with Kokkos version 4.2.0 is enabled (../kokkos.cpp:72)
package kokkos
package kokkos comm device
###
# Reference paper:
# K. Kremer and G. S. Grest
# Dynamics of entangled linear polymer melts: A molecular-dynamics simulation
# J Chem Phys 92, 5057 (1990)
###

###
# Box and units  (use LJ units and periodic boundaries)
###

units lj

atom_style ellipsoid

boundary        p p p

###
# Pair interactions require lists of neighbours to be calculated
###
neighbor 1.5 bin
neigh_modify every 1 delay 0 check yes

### Generate RESTART file, SPECIAL format, not a .txt file ###
### Useful if simulation crashes ###
#restart 10000 polymer.restart
#############################

#processors 2 1 1

### READ "REstart" data file ###
#read_restart polymer.restart.10000
######################

read_data lmp_data
Reading data file ...
  orthogonal box = (3 -4 -7) to (8 0 3)
  1 by 1 by 2 MPI processor grid
  reading atoms ...
  7 atoms
  reading velocities ...
  7 velocities
  7 ellipsoids
  read_data CPU = 0.002 seconds

### reset timestep ###
reset_timestep 0
######################

###
# Define groups (atom type 1 is group 'all')
###
group all type 1
7 atoms in group all
group polymer type 1
7 atoms in group polymer

###
# Dump configs - "simple dumpings"
###

###
# Dump configs + box coords
###
compute q all property/atom quatw quati quatj quatk
compute diameter all property/atom shapex shapey shapez
dump 1 all custom 1 dump.polymer id type x y z c_q[1] c_q[2] c_q[3] c_q[4] c_diameter[1] c_diameter[2] c_diameter[3]
dump_modify 1 colname c_q[1] quatw colname c_q[2] quati colname c_q[3] quatj colname c_q[4] quatk
dump_modify 1 colname c_diameter[1] shapex colname c_diameter[2] shapey colname c_diameter[3] shapez
#dump   1   all   custom   100000   polymer.dump.*  id x y z  ix iy iz
#dump_modify   1   format line "%d %.5f %.5f %.5f %d %d %d"
#dump   id all atom 1000 dump.polymer

###################################################################
# Stiffness term
#
# E = K * (theta-thera0)**2, K>0
#
#angle_style   harmonic
#angle_coeff   1 2.0 120.0
###################################################################

###################################################################
# Pair interaction between non-bonded atoms
#
#  Lennard-Jones 12-6 potential with cutoff:
#  potential E=4epsilon[ (sigma/r)^12 - (sigma/r)^6]  for r<r_cut
#
#  1.12246152962189 = 2^(1/6) is the minimum of the potential

pair_style      lj/cut 1.12246152962189

#
#  pair_coeff for lj/cut, specify 4:
#    * atom type interacting with
#    * atom type
#    * epsilon (energy units)
#    * sigma (distance units)
#

pair_coeff      1 1 1.0 0.01

#
#  pair_modify shift yes adds a constant to the potential such
#  that E(r_cut)=0. Forces remains unchanged.
#

pair_modify     shift yes

###################################################

#comm_modify cutoff 6
#comm_style tiled
#balance 1.2 rcb

###
# Set up fixes
###

fix 1 all   nve   ###NVE ensemble
#fix 2 all   langevin   1.0 1.0   2.0   424242   ###Langevin integrator Tstart Tstop 1/friction rndseed

compute ekin all ke
compute epot all pe
variable ekin equal c_ekin
variable epot equal c_epot
variable etot equal c_ekin+c_epot

fix 5 all print 1 "$(step)  ekin = ${ekin} | epot = ${epot} | etot = ${etot}" screen yes

##### Sample thermodynamic info  (temperature, energy, pressure, etc.) #####
#thermo 10000
#thermo_style   custom   step  temp  epair  emol  press pxx pyy pzz  vol
############################################################################

###
# set timestep of integrator
###
timestep 0.001 #0.012

###
# run integration for a number of steps
###
run 10000
Generated 0 of 0 mixed pair_coeff terms from geometric mixing rule
Neighbor list info ...
  update: every = 1 steps, delay = 0 steps, check = yes
  max neighbors/atom: 2000, page size: 100000
  master list distance cutoff = 2.6224615
  ghost atom cutoff = 2.6224615
  binsize = 1.3112308, bins = 4 4 8
  1 neighbor lists, perpetual/occasional/extra = 1 0 0
  (1) pair lj/cut/kk, perpetual
      attributes: half, newton on, kokkos_device
      pair build: half/bin/newton/kk/device
      stencil: half/bin/3d
      bin: kk/device
0  ekin = 10937.4995110569 | epot = -5.48765510171116e-12 | etot = 10937.4995110569
Per MPI rank memory allocation (min/avg/max) = 5.174 | 5.174 | 5.174 Mbytes
   Step          Temp          E_pair         E_mol          TotEng         Press     
         0   1215.2777     -7.8395073e-13  0              1562.4999      36.458332    
1  ekin = 10937.4995110569 | epot = -5.48765510171115e-12 | etot = 10937.4995110569
2  ekin = 10937.4995110569 | epot = -5.48765510171115e-12 | etot = 10937.4995110569
3  ekin = 10937.4995110569 | epot = -5.48765510171114e-12 | etot = 10937.4995110569
4  ekin = 10937.4995110569 | epot = -5.48765510171114e-12 | etot = 10937.4995110569
5  ekin = 10937.4995110569 | epot = -5.48765510171113e-12 | etot = 10937.4995110569
6  ekin = 10937.4995110569 | epot = -5.48765510171113e-12 | etot = 10937.4995110569
7  ekin = 10937.4995110569 | epot = -5.48765510171113e-12 | etot = 10937.4995110569
8  ekin = 10937.4995110569 | epot = -5.48765510171112e-12 | etot = 10937.4995110569
9  ekin = 10937.4995110569 | epot = -5.48765510171112e-12 | etot = 10937.4995110569
10  ekin = 10937.4995110569 | epot = -5.48765510171111e-12 | etot = 10937.4995110569
11  ekin = 10937.4995110569 | epot = -5.48765510171111e-12 | etot = 10937.4995110569
12  ekin = 10937.4995110569 | epot = -5.4876551017111e-12 | etot = 10937.4995110569
13  ekin = 10937.4995110569 | epot = -5.4876551017111e-12 | etot = 10937.4995110569
14  ekin = 10937.4995110569 | epot = -5.48765510171109e-12 | etot = 10937.4995110569
15  ekin = 10937.4995110569 | epot = -5.48765510171109e-12 | etot = 10937.4995110569
16  ekin = 10937.4995110569 | epot = -5.48765510171108e-12 | etot = 10937.4995110569
17  ekin = 10937.4995110569 | epot = -5.48765510171108e-12 | etot = 10937.4995110569
18  ekin = 10937.4995110569 | epot = -5.48765510171107e-12 | etot = 10937.4995110569
19  ekin = 10937.4995110569 | epot = -5.48765510171107e-12 | etot = 10937.4995110569
20  ekin = 10937.4995110569 | epot = -5.48765510171106e-12 | etot = 10937.4995110569
21  ekin = 10937.4995110569 | epot = -5.48765510171106e-12 | etot = 10937.4995110569
22  ekin = 10937.4995110569 | epot = -5.48765510171105e-12 | etot = 10937.4995110569
23  ekin = 10937.4995110569 | epot = -5.48765510171105e-12 | etot = 10937.4995110569
24  ekin = 10937.4995110569 | epot = -5.48765510171104e-12 | etot = 10937.4995110569
25  ekin = 10937.4995110569 | epot = -5.48765510171104e-12 | etot = 10937.4995110569
26  ekin = 10937.4995110569 | epot = -5.48765510171104e-12 | etot = 10937.4995110569
27  ekin = 10937.4995110569 | epot = -5.48765510171103e-12 | etot = 10937.4995110569
28  ekin = 10937.4995110569 | epot = -5.48765510171103e-12 | etot = 10937.4995110569
29  ekin = 10937.4995110569 | epot = -5.48765510171102e-12 | etot = 10937.4995110569
30  ekin = 10937.4995110569 | epot = -5.48765510171102e-12 | etot = 10937.4995110569
31  ekin = 10937.4995110569 | epot = -5.48765510171101e-12 | etot = 10937.4995110569
32  ekin = 10937.4995110569 | epot = -5.48765510171101e-12 | etot = 10937.4995110569
33  ekin = 10937.4995110569 | epot = -5.487655101711e-12 | etot = 10937.4995110569
34  ekin = 10937.4995110569 | epot = -5.487655101711e-12 | etot = 10937.4995110569
35  ekin = 10937.4995110569 | epot = -5.48765510171099e-12 | etot = 10937.4995110569
36  ekin = 10937.4995110569 | epot = -5.48765510171099e-12 | etot = 10937.4995110569
37  ekin = 10937.4995110569 | epot = -5.48765510171098e-12 | etot = 10937.4995110569
38  ekin = 10937.4995110569 | epot = -5.48765510171098e-12 | etot = 10937.4995110569
39  ekin = 10937.4995110569 | epot = -5.48765510171097e-12 | etot = 10937.4995110569
40  ekin = 10937.4995110569 | epot = -5.48765510171097e-12 | etot = 10937.4995110569
41  ekin = 10937.4995110569 | epot = -5.48765510171096e-12 | etot = 10937.4995110569
42  ekin = 10937.4995110569 | epot = -5.48765510171096e-12 | etot = 10937.4995110569
43  ekin = 10937.4995110569 | epot = -5.48765510171096e-12 | etot = 10937.4995110569
44  ekin = 10937.4995110569 | epot = -5.48765510171095e-12 | etot = 10937.4995110569
45  ekin = 10937.4995110569 | epot = -5.48765510171095e-12 | etot = 10937.4995110569
46  ekin = 10937.4995110569 | epot = -5.48765510171094e-12 | etot = 10937.4995110569
47  ekin = 10937.4995110569 | epot = -5.48765510171094e-12 | etot = 10937.4995110569
48  ekin = 10937.4995110569 | epot = -5.48765510171093e-12 | etot = 10937.4995110569
49  ekin = 10937.4995110569 | epot = -5.48765510171093e-12 | etot = 10937.4995110569
50  ekin = 10937.4995110569 | epot = -5.48765510171092e-12 | etot = 10937.4995110569
51  ekin = 10937.4995110569 | epot = -5.48765510171092e-12 | etot = 10937.4995110569
52  ekin = 10937.4995110569 | epot = -5.48765510171091e-12 | etot = 10937.4995110569
53  ekin = 10937.4995110569 | epot = -5.48765510171091e-12 | etot = 10937.4995110569
54  ekin = 10937.4995110569 | epot = -5.4876551017109e-12 | etot = 10937.4995110569
55  ekin = 10937.4995110569 | epot = -5.4876551017109e-12 | etot = 10937.4995110569
56  ekin = 10937.4995110569 | epot = -5.48765510171089e-12 | etot = 10937.4995110569
57  ekin = 10937.4995110569 | epot = -5.48765510171089e-12 | etot = 10937.4995110569
58  ekin = 10937.4995110569 | epot = -5.48765510171088e-12 | etot = 10937.4995110569
59  ekin = 10937.4995110569 | epot = -5.48765510171088e-12 | etot = 10937.4995110569
60  ekin = 10937.4995110569 | epot = -5.48765510171087e-12 | etot = 10937.4995110569
61  ekin = 10937.4995110569 | epot = -5.48765510171087e-12 | etot = 10937.4995110569
62  ekin = 10937.4995110569 | epot = -5.48765510171087e-12 | etot = 10937.4995110569
63  ekin = 10937.4995110569 | epot = -5.48765510171086e-12 | etot = 10937.4995110569
64  ekin = 10937.4995110569 | epot = -5.48765510171086e-12 | etot = 10937.4995110569
65  ekin = 10937.4995110569 | epot = -5.48765510171085e-12 | etot = 10937.4995110569
66  ekin = 10937.4995110569 | epot = -5.48765510171085e-12 | etot = 10937.4995110569
67  ekin = 10937.4995110569 | epot = -5.48765510171085e-12 | etot = 10937.4995110569
68  ekin = 10937.4995110569 | epot = -5.48765510171084e-12 | etot = 10937.4995110569
69  ekin = 10937.4995110569 | epot = -5.48765510171084e-12 | etot = 10937.4995110569
70  ekin = 10937.4995110569 | epot = -5.48765510171084e-12 | etot = 10937.4995110569
71  ekin = 10937.4995110569 | epot = -5.48765510171084e-12 | etot = 10937.4995110569
72  ekin = 10937.4995110569 | epot = -5.48765510171083e-12 | etot = 10937.4995110569
73  ekin = 10937.4995110569 | epot = -5.48765510171083e-12 | etot = 10937.4995110569
74  ekin = 10937.4995110569 | epot = -5.48765510171083e-12 | etot = 10937.4995110569
75  ekin = 10937.4995110569 | epot = -5.48765510171083e-12 | etot = 10937.4995110569
76  ekin = 10937.4995110569 | epot = -5.48765510171082e-12 | etot = 10937.4995110569
77  ekin = 10937.4995110569 | epot = -5.48765510171082e-12 | etot = 10937.4995110569
78  ekin = 10937.4995110569 | epot = -5.48765510171082e-12 | etot = 10937.4995110569
79  ekin = 10937.4995110569 | epot = -5.48765510171082e-12 | etot = 10937.4995110569
80  ekin = 10937.4995110569 | epot = -5.48765510171082e-12 | etot = 10937.4995110569
81  ekin = 10937.4995110569 | epot = -5.48765510171081e-12 | etot = 10937.4995110569
82  ekin = 10937.4995110569 | epot = -5.48765510171081e-12 | etot = 10937.4995110569
83  ekin = 10937.4995110569 | epot = -5.48765510171081e-12 | etot = 10937.4995110569
84  ekin = 10937.4995110569 | epot = -5.48765510171081e-12 | etot = 10937.4995110569
85  ekin = 10937.4995110569 | epot = -5.48765510171081e-12 | etot = 10937.4995110569
86  ekin = 10937.4995110569 | epot = -5.4876551017108e-12 | etot = 10937.4995110569
87  ekin = 10937.4995110569 | epot = -5.4876551017108e-12 | etot = 10937.4995110569
88  ekin = 10937.4995110569 | epot = -5.4876551017108e-12 | etot = 10937.4995110569
89  ekin = 10937.4995110569 | epot = -5.4876551017108e-12 | etot = 10937.4995110569
90  ekin = 10937.4995110569 | epot = -5.48765510171079e-12 | etot = 10937.4995110569
91  ekin = 10937.4995110569 | epot = -5.48765510171079e-12 | etot = 10937.4995110569
92  ekin = 10937.4995110569 | epot = -5.48765510171079e-12 | etot = 10937.4995110569
93  ekin = 10937.4995110569 | epot = -5.48765510171079e-12 | etot = 10937.4995110569
94  ekin = 10937.4995110569 | epot = -5.48765510171079e-12 | etot = 10937.4995110569
95  ekin = 10937.4995110569 | epot = -5.48765510171078e-12 | etot = 10937.4995110569
96  ekin = 10937.4995110569 | epot = -5.48765510171078e-12 | etot = 10937.4995110569
97  ekin = 10937.4995110569 | epot = -5.48765510171078e-12 | etot = 10937.4995110569
98  ekin = 10937.4995110569 | epot = -5.48765510171078e-12 | etot = 10937.4995110569
99  ekin = 10937.4995110569 | epot = -5.48765510171077e-12 | etot = 10937.4995110569
100  ekin = 10937.4995110569 | epot = -5.48765510171077e-12 | etot = 10937.4995110569
101  ekin = 10937.4995110569 | epot = -5.48765510171077e-12 | etot = 10937.4995110569
102  ekin = 10937.4995110569 | epot = -5.48765510171077e-12 | etot = 10937.4995110569
103  ekin = 10937.4995110569 | epot = -5.48765510171077e-12 | etot = 10937.4995110569
104  ekin = 10937.4995110569 | epot = -5.48765510171076e-12 | etot = 10937.4995110569
105  ekin = 10937.4995110569 | epot = -5.48765510171076e-12 | etot = 10937.4995110569
106  ekin = 10937.4995110569 | epot = -5.48765510171076e-12 | etot = 10937.4995110569
107  ekin = 10937.4995110569 | epot = -5.48765510171076e-12 | etot = 10937.4995110569
108  ekin = 10937.4995110569 | epot = -5.48765510171075e-12 | etot = 10937.4995110569
109  ekin = 10937.4995110569 | epot = -5.48765510171075e-12 | etot = 10937.4995110569
110  ekin = 10937.4995110569 | epot = -5.48765510171075e-12 | etot = 10937.4995110569
111  ekin = 10937.4995110569 | epot = -5.48765510171075e-12 | etot = 10937.4995110569
112  ekin = 10937.4995110569 | epot = -5.48765510171075e-12 | etot = 10937.4995110569
113  ekin = 10937.4995110569 | epot = -5.48765510171074e-12 | etot = 10937.4995110569
114  ekin = 10937.4995110569 | epot = -5.48765510171074e-12 | etot = 10937.4995110569
115  ekin = 10937.4995110569 | epot = -5.48765510171074e-12 | etot = 10937.4995110569
116  ekin = 10937.4995110569 | epot = -5.48765510171074e-12 | etot = 10937.4995110569
117  ekin = 10937.4995110569 | epot = -5.48765510171074e-12 | etot = 10937.4995110569
118  ekin = 10937.4995110569 | epot = -5.48765510171073e-12 | etot = 10937.4995110569
119  ekin = 10937.4995110569 | epot = -5.48765510171073e-12 | etot = 10937.4995110569
120  ekin = 10937.4995110569 | epot = -5.48765510171073e-12 | etot = 10937.4995110569
121  ekin = 10937.4995110569 | epot = -5.48765510171073e-12 | etot = 10937.4995110569
122  ekin = 10937.4995110569 | epot = -5.48765510171072e-12 | etot = 10937.4995110569
123  ekin = 10937.4995110569 | epot = -5.48765510171072e-12 | etot = 10937.4995110569
124  ekin = 10937.4995110569 | epot = -5.48765510171072e-12 | etot = 10937.4995110569
125  ekin = 10937.4995110569 | epot = -5.48765510171072e-12 | etot = 10937.4995110569
126  ekin = 10937.4995110569 | epot = -5.48765510171072e-12 | etot = 10937.4995110569
127  ekin = 10937.4995110569 | epot = -5.48765510171071e-12 | etot = 10937.4995110569
128  ekin = 10937.4995110569 | epot = -5.48765510171071e-12 | etot = 10937.4995110569
129  ekin = 10937.4995110569 | epot = -5.48765510171071e-12 | etot = 10937.4995110569
130  ekin = 10937.4995110569 | epot = -5.48765510171071e-12 | etot = 10937.4995110569
131  ekin = 10937.4995110569 | epot = -5.4876551017107e-12 | etot = 10937.4995110569
132  ekin = 10937.4995110569 | epot = -5.4876551017107e-12 | etot = 10937.4995110569
133  ekin = 10937.4995110569 | epot = -5.4876551017107e-12 | etot = 10937.4995110569
134  ekin = 10937.4995110569 | epot = -5.4876551017107e-12 | etot = 10937.4995110569
135  ekin = 10937.4995110569 | epot = -5.4876551017107e-12 | etot = 10937.4995110569
136  ekin = 10937.4995110569 | epot = -5.48765510171069e-12 | etot = 10937.4995110569
137  ekin = 10937.4995110569 | epot = -5.48765510171069e-12 | etot = 10937.4995110569
138  ekin = 10937.4995110569 | epot = -5.48765510171069e-12 | etot = 10937.4995110569
139  ekin = 10937.4995110569 | epot = -5.48765510171069e-12 | etot = 10937.4995110569
140  ekin = 10937.4995110569 | epot = -5.48765510171069e-12 | etot = 10937.4995110569
141  ekin = 10937.4995110569 | epot = -5.48765510171068e-12 | etot = 10937.4995110569
142  ekin = 10937.4995110569 | epot = -5.48765510171068e-12 | etot = 10937.4995110569
143  ekin = 10937.4995110569 | epot = -5.48765510171068e-12 | etot = 10937.4995110569
144  ekin = 10937.4995110569 | epot = -5.48765510171068e-12 | etot = 10937.4995110569
145  ekin = 10937.4995110569 | epot = -5.48765510171067e-12 | etot = 10937.4995110569
146  ekin = 10937.4995110569 | epot = -5.48765510171067e-12 | etot = 10937.4995110569
147  ekin = 10937.4995110569 | epot = -5.48765510171067e-12 | etot = 10937.4995110569
148  ekin = 10937.4995110569 | epot = -5.48765510171067e-12 | etot = 10937.4995110569
149  ekin = 10937.4995110569 | epot = -5.48765510171066e-12 | etot = 10937.4995110569
150  ekin = 10937.4995110569 | epot = -5.48765510171066e-12 | etot = 10937.4995110569
151  ekin = 10937.4995110569 | epot = -5.48765510171066e-12 | etot = 10937.4995110569
152  ekin = 10937.4995110569 | epot = -5.48765510171066e-12 | etot = 10937.4995110569
153  ekin = 10937.4995110569 | epot = -5.48765510171066e-12 | etot = 10937.4995110569
154  ekin = 10937.4995110569 | epot = -5.48765510171065e-12 | etot = 10937.4995110569
155  ekin = 10937.4995110569 | epot = -5.48765510171065e-12 | etot = 10937.4995110569
156  ekin = 10937.4995110569 | epot = -5.48765510171065e-12 | etot = 10937.4995110569
157  ekin = 10937.4995110569 | epot = -5.48765510171065e-12 | etot = 10937.4995110569
158  ekin = 10937.4995110569 | epot = -5.48765510171064e-12 | etot = 10937.4995110569
159  ekin = 10937.4995110569 | epot = -5.48765510171064e-12 | etot = 10937.4995110569
160  ekin = 10937.4995110569 | epot = -5.48765510171064e-12 | etot = 10937.4995110569
161  ekin = 10937.4995110569 | epot = -5.48765510171064e-12 | etot = 10937.4995110569
162  ekin = 10937.4995110569 | epot = -5.48765510171063e-12 | etot = 10937.4995110569
163  ekin = 10937.4995110569 | epot = -5.48765510171063e-12 | etot = 10937.4995110569
164  ekin = 10937.4995110569 | epot = -5.48765510171063e-12 | etot = 10937.4995110569
165  ekin = 10937.4995110569 | epot = -5.48765510171062e-12 | etot = 10937.4995110569
166  ekin = 10937.4995110569 | epot = -5.48765510171062e-12 | etot = 10937.4995110569
167  ekin = 10937.4995110569 | epot = -5.48765510171062e-12 | etot = 10937.4995110569
168  ekin = 10937.4995110569 | epot = -5.48765510171061e-12 | etot = 10937.4995110569
169  ekin = 10937.4995110569 | epot = -5.48765510171061e-12 | etot = 10937.4995110569
170  ekin = 10937.4995110569 | epot = -5.48765510171061e-12 | etot = 10937.4995110569
171  ekin = 10937.4995110569 | epot = -5.4876551017106e-12 | etot = 10937.4995110569
172  ekin = 10937.4995110569 | epot = -5.4876551017106e-12 | etot = 10937.4995110569
173  ekin = 10937.4995110569 | epot = -5.4876551017106e-12 | etot = 10937.4995110569
174  ekin = 10937.4995110569 | epot = -5.48765510171059e-12 | etot = 10937.4995110569
175  ekin = 10937.4995110569 | epot = -5.48765510171059e-12 | etot = 10937.4995110569
176  ekin = 10937.4995110569 | epot = -5.48765510171059e-12 | etot = 10937.4995110569
177  ekin = 10937.4995110569 | epot = -5.48765510171058e-12 | etot = 10937.4995110569
178  ekin = 10937.4995110569 | epot = -5.48765510171058e-12 | etot = 10937.4995110569
179  ekin = 10937.4995110569 | epot = -5.48765510171058e-12 | etot = 10937.4995110569
180  ekin = 10937.4995110569 | epot = -5.48765510171058e-12 | etot = 10937.4995110569
181  ekin = 10937.4995110569 | epot = -5.48765510171057e-12 | etot = 10937.4995110569
182  ekin = 10937.4995110569 | epot = -5.48765510171056e-12 | etot = 10937.4995110569
183  ekin = 10937.4995110569 | epot = -5.48765510171056e-12 | etot = 10937.4995110569
184  ekin = 10937.4995110569 | epot = -5.48765510171056e-12 | etot = 10937.4995110569
185  ekin = 10937.4995110569 | epot = -5.48765510171056e-12 | etot = 10937.4995110569
186  ekin = 10937.4995110569 | epot = -5.48765510171055e-12 | etot = 10937.4995110569
187  ekin = 10937.4995110569 | epot = -5.48765510171055e-12 | etot = 10937.4995110569
188  ekin = 10937.4995110569 | epot = -5.48765510171055e-12 | etot = 10937.4995110569
189  ekin = 10937.4995110569 | epot = -5.48765510171054e-12 | etot = 10937.4995110569
190  ekin = 10937.4995110569 | epot = -5.48765510171054e-12 | etot = 10937.4995110569
191  ekin = 10937.4995110569 | epot = -5.48765510171053e-12 | etot = 10937.4995110569
192  ekin = 10937.4995110569 | epot = -5.48765510171053e-12 | etot = 10937.4995110569
193  ekin = 10937.4995110569 | epot = -5.48765510171053e-12 | etot = 10937.4995110569
194  ekin = 10937.4995110569 | epot = -5.48765510171052e-12 | etot = 10937.4995110569
195  ekin = 10937.4995110569 | epot = -5.48765510171052e-12 | etot = 10937.4995110569
196  ekin = 10937.4995110569 | epot = -5.48765510171052e-12 | etot = 10937.4995110569
197  ekin = 10937.4995110569 | epot = -5.48765510171051e-12 | etot = 10937.4995110569
198  ekin = 10937.4995110569 | epot = -5.48765510171051e-12 | etot = 10937.4995110569
199  ekin = 10937.4995110569 | epot = -5.4876551017105e-12 | etot = 10937.4995110569
200  ekin = 10937.4995110569 | epot = -5.4876551017105e-12 | etot = 10937.4995110569
201  ekin = 10937.4995110569 | epot = -5.4876551017105e-12 | etot = 10937.4995110569
202  ekin = 10937.4995110569 | epot = -5.4876551017105e-12 | etot = 10937.4995110569
203  ekin = 10937.4995110569 | epot = -5.48765510171049e-12 | etot = 10937.4995110569
204  ekin = 10937.4995110569 | epot = -5.48765510171049e-12 | etot = 10937.4995110569
205  ekin = 10937.4995110569 | epot = -5.48765510171049e-12 | etot = 10937.4995110569
206  ekin = 10937.4995110569 | epot = -5.48765510171048e-12 | etot = 10937.4995110569
207  ekin = 10937.4995110569 | epot = -5.48765510171048e-12 | etot = 10937.4995110569
208  ekin = 10937.4995110569 | epot = -5.48765510171048e-12 | etot = 10937.4995110569
209  ekin = 10937.4995110569 | epot = -5.48765510171047e-12 | etot = 10937.4995110569
210  ekin = 10937.4995110569 | epot = -5.48765510171047e-12 | etot = 10937.4995110569
211  ekin = 10937.4995110569 | epot = -5.48765510171046e-12 | etot = 10937.4995110569
212  ekin = 10937.4995110569 | epot = -5.48765510171046e-12 | etot = 10937.4995110569
213  ekin = 10937.4995110569 | epot = -5.48765510171046e-12 | etot = 10937.4995110569
214  ekin = 10937.4995110569 | epot = -5.48765510171045e-12 | etot = 10937.4995110569
215  ekin = 10937.4995110569 | epot = -5.48765510171045e-12 | etot = 10937.4995110569
216  ekin = 10937.4995110569 | epot = -5.48765510171045e-12 | etot = 10937.4995110569
217  ekin = 10937.4995110569 | epot = -5.48765510171044e-12 | etot = 10937.4995110569
218  ekin = 10937.4995110569 | epot = -5.48765510171044e-12 | etot = 10937.4995110569
219  ekin = 10937.4995110569 | epot = -5.48765510171044e-12 | etot = 10937.4995110569
220  ekin = 10937.4995110569 | epot = -5.48765510171043e-12 | etot = 10937.4995110569
221  ekin = 10937.4995110569 | epot = -5.48765510171043e-12 | etot = 10937.4995110569
222  ekin = 10937.4995110569 | epot = -5.48765510171043e-12 | etot = 10937.4995110569
223  ekin = 10937.4995110569 | epot = -5.48765510171042e-12 | etot = 10937.4995110569
224  ekin = 10937.4995110569 | epot = -5.48765510171042e-12 | etot = 10937.4995110569
225  ekin = 10937.4995110569 | epot = -5.48765510171042e-12 | etot = 10937.4995110569
226  ekin = 10937.4995110569 | epot = -5.48765510171041e-12 | etot = 10937.4995110569
227  ekin = 10937.4995110569 | epot = -5.48765510171041e-12 | etot = 10937.4995110569
228  ekin = 10937.4995110569 | epot = -5.48765510171041e-12 | etot = 10937.4995110569
229  ekin = 10937.4995110569 | epot = -5.4876551017104e-12 | etot = 10937.4995110569
230  ekin = 10937.4995110569 | epot = -5.4876551017104e-12 | etot = 10937.4995110569
231  ekin = 10937.4995110569 | epot = -5.48765510171039e-12 | etot = 10937.4995110569
232  ekin = 10937.4995110569 | epot = -5.48765510171039e-12 | etot = 10937.4995110569
233  ekin = 10937.4995110569 | epot = -5.48765510171039e-12 | etot = 10937.4995110569
234  ekin = 10937.4995110569 | epot = -5.48765510171039e-12 | etot = 10937.4995110569
235  ekin = 10937.4995110569 | epot = -5.48765510171038e-12 | etot = 10937.4995110569
236  ekin = 10937.4995110569 | epot = -5.48765510171038e-12 | etot = 10937.4995110569
237  ekin = 10937.4995110569 | epot = -5.48765510171037e-12 | etot = 10937.4995110569
238  ekin = 10937.4995110569 | epot = -5.48765510171037e-12 | etot = 10937.4995110569
239  ekin = 10937.4995110569 | epot = -5.48765510171037e-12 | etot = 10937.4995110569
240  ekin = 10937.4995110569 | epot = -5.48765510171037e-12 | etot = 10937.4995110569
241  ekin = 10937.4995110569 | epot = -5.48765510171036e-12 | etot = 10937.4995110569
242  ekin = 10937.4995110569 | epot = -5.48765510171036e-12 | etot = 10937.4995110569
243  ekin = 10937.4995110569 | epot = -5.48765510171035e-12 | etot = 10937.4995110569
244  ekin = 10937.4995110569 | epot = -5.48765510171035e-12 | etot = 10937.4995110569
245  ekin = 10937.4995110569 | epot = -5.48765510171035e-12 | etot = 10937.4995110569
246  ekin = 10937.4995110569 | epot = -5.48765510171034e-12 | etot = 10937.4995110569
247  ekin = 10937.4995110569 | epot = -5.48765510171034e-12 | etot = 10937.4995110569
248  ekin = 10937.4995110569 | epot = -5.48765510171033e-12 | etot = 10937.4995110569
249  ekin = 10937.4995110569 | epot = -5.48765510171033e-12 | etot = 10937.4995110569
250  ekin = 10937.4995110569 | epot = -5.48765510171032e-12 | etot = 10937.4995110569
251  ekin = 10937.4995110569 | epot = -5.48765510171032e-12 | etot = 10937.4995110569
252  ekin = 10937.4995110569 | epot = -5.48765510171031e-12 | etot = 10937.4995110569
253  ekin = 10937.4995110569 | epot = -5.48765510171031e-12 | etot = 10937.4995110569
254  ekin = 10937.4995110569 | epot = -5.4876551017103e-12 | etot = 10937.4995110569
255  ekin = 10937.4995110569 | epot = -5.4876551017103e-12 | etot = 10937.4995110569
256  ekin = 10937.4995110569 | epot = -5.48765510171029e-12 | etot = 10937.4995110569
257  ekin = 10937.4995110569 | epot = -5.48765510171029e-12 | etot = 10937.4995110569
258  ekin = 10937.4995110569 | epot = -5.48765510171028e-12 | etot = 10937.4995110569
259  ekin = 10937.4995110569 | epot = -5.48765510171028e-12 | etot = 10937.4995110569
260  ekin = 10937.4995110569 | epot = -5.48765510171028e-12 | etot = 10937.4995110569
261  ekin = 10937.4995110569 | epot = -5.48765510171027e-12 | etot = 10937.4995110569
262  ekin = 10937.4995110569 | epot = -5.48765510171027e-12 | etot = 10937.4995110569
263  ekin = 10937.4995110569 | epot = -5.48765510171027e-12 | etot = 10937.4995110569
264  ekin = 10937.4995110569 | epot = -5.48765510171026e-12 | etot = 10937.4995110569
265  ekin = 10937.4995110569 | epot = -5.48765510171026e-12 | etot = 10937.4995110569
266  ekin = 10937.4995110569 | epot = -5.48765510171025e-12 | etot = 10937.4995110569
267  ekin = 10937.4995110569 | epot = -5.48765510171025e-12 | etot = 10937.4995110569
268  ekin = 10937.4995110569 | epot = -5.48765510171024e-12 | etot = 10937.4995110569
269  ekin = 10937.4995110569 | epot = -5.48765510171024e-12 | etot = 10937.4995110569
270  ekin = 10937.4995110569 | epot = -5.48765510171023e-12 | etot = 10937.4995110569
271  ekin = 10937.4995110569 | epot = -5.48765510171023e-12 | etot = 10937.4995110569
272  ekin = 10937.4995110569 | epot = -5.48765510171022e-12 | etot = 10937.4995110569
273  ekin = 10937.4995110569 | epot = -5.48765510171022e-12 | etot = 10937.4995110569
274  ekin = 10937.4995110569 | epot = -5.48765510171022e-12 | etot = 10937.4995110569
275  ekin = 10937.4995110569 | epot = -5.48765510171021e-12 | etot = 10937.4995110569
276  ekin = 10937.4995110569 | epot = -5.48765510171021e-12 | etot = 10937.4995110569
277  ekin = 10937.4995110569 | epot = -5.4876551017102e-12 | etot = 10937.4995110569
278  ekin = 10937.4995110569 | epot = -5.4876551017102e-12 | etot = 10937.4995110569
279  ekin = 10937.4995110569 | epot = -5.48765510171019e-12 | etot = 10937.4995110569
280  ekin = 10937.4995110569 | epot = -5.48765510171019e-12 | etot = 10937.4995110569
281  ekin = 10937.4995110569 | epot = -5.48765510171018e-12 | etot = 10937.4995110569
282  ekin = 10937.4995110569 | epot = -5.48765510171018e-12 | etot = 10937.4995110569
283  ekin = 10937.4995110569 | epot = -5.48765510171017e-12 | etot = 10937.4995110569
284  ekin = 10937.4995110569 | epot = -5.48765510171017e-12 | etot = 10937.4995110569
285  ekin = 10937.4995110569 | epot = -5.48765510171017e-12 | etot = 10937.4995110569
286  ekin = 10937.4995110569 | epot = -5.48765510171016e-12 | etot = 10937.4995110569
287  ekin = 10937.4995110569 | epot = -5.48765510171016e-12 | etot = 10937.4995110569
288  ekin = 10937.4995110569 | epot = -5.48765510171015e-12 | etot = 10937.4995110569
289  ekin = 10937.4995110569 | epot = -5.48765510171015e-12 | etot = 10937.4995110569
290  ekin = 10937.4995110569 | epot = -5.48765510171014e-12 | etot = 10937.4995110569
291  ekin = 10937.4995110569 | epot = -5.48765510171014e-12 | etot = 10937.4995110569
292  ekin = 10937.4995110569 | epot = -5.48765510171013e-12 | etot = 10937.4995110569
293  ekin = 10937.4995110569 | epot = -5.48765510171013e-12 | etot = 10937.4995110569
294  ekin = 10937.4995110569 | epot = -5.48765510171012e-12 | etot = 10937.4995110569
295  ekin = 10937.4995110569 | epot = -5.48765510171012e-12 | etot = 10937.4995110569
296  ekin = 10937.4995110569 | epot = -5.48765510171012e-12 | etot = 10937.4995110569
297  ekin = 10937.4995110569 | epot = -5.48765510171011e-12 | etot = 10937.4995110569
298  ekin = 10937.4995110569 | epot = -5.48765510171011e-12 | etot = 10937.4995110569
299  ekin = 10937.4995110569 | epot = -5.4876551017101e-12 | etot = 10937.4995110569
300  ekin = 10937.4995110569 | epot = -5.4876551017101e-12 | etot = 10937.4995110569
301  ekin = 10937.4995110569 | epot = -5.48765510171009e-12 | etot = 10937.4995110569
302  ekin = 10937.4995110569 | epot = -5.48765510171009e-12 | etot = 10937.4995110569
303  ekin = 10937.4995110569 | epot = -5.48765510171008e-12 | etot = 10937.4995110569
304  ekin = 10937.4995110569 | epot = -5.48765510171008e-12 | etot = 10937.4995110569
305  ekin = 10937.4995110569 | epot = -5.48765510171008e-12 | etot = 10937.4995110569
306  ekin = 10937.4995110569 | epot = -5.48765510171007e-12 | etot = 10937.4995110569
307  ekin = 10937.4995110569 | epot = -5.48765510171007e-12 | etot = 10937.4995110569
308  ekin = 10937.4995110569 | epot = -5.48765510171006e-12 | etot = 10937.4995110569
309  ekin = 10937.4995110569 | epot = -5.48765510171006e-12 | etot = 10937.4995110569
310  ekin = 10937.4995110569 | epot = -5.48765510171005e-12 | etot = 10937.4995110569
311  ekin = 10937.4995110569 | epot = -5.48765510171005e-12 | etot = 10937.4995110569
312  ekin = 10937.4995110569 | epot = -5.48765510171004e-12 | etot = 10937.4995110569
313  ekin = 10937.4995110569 | epot = -5.48765510171004e-12 | etot = 10937.4995110569
314  ekin = 10937.4995110569 | epot = -5.48765510171003e-12 | etot = 10937.4995110569
315  ekin = 10937.4995110569 | epot = -5.48765510171003e-12 | etot = 10937.4995110569
316  ekin = 10937.4995110569 | epot = -5.48765510171003e-12 | etot = 10937.4995110569
317  ekin = 10937.4995110569 | epot = -5.48765510171002e-12 | etot = 10937.4995110569
318  ekin = 10937.4995110569 | epot = -5.48765510171002e-12 | etot = 10937.4995110569
319  ekin = 10937.4995110569 | epot = -5.48765510171001e-12 | etot = 10937.4995110569
320  ekin = 10937.4995110569 | epot = -5.48765510171001e-12 | etot = 10937.4995110569
321  ekin = 10937.4995110569 | epot = -5.48765510171e-12 | etot = 10937.4995110569
322  ekin = 10937.4995110569 | epot = -5.48765510171e-12 | etot = 10937.4995110569
323  ekin = 10937.4995110569 | epot = -5.48765510170999e-12 | etot = 10937.4995110569
324  ekin = 10937.4995110569 | epot = -5.48765510170999e-12 | etot = 10937.4995110569
325  ekin = 10937.4995110569 | epot = -5.48765510170999e-12 | etot = 10937.4995110569
326  ekin = 10937.4995110569 | epot = -5.48765510170998e-12 | etot = 10937.4995110569
327  ekin = 10937.4995110569 | epot = -5.48765510170998e-12 | etot = 10937.4995110569
328  ekin = 10937.4995110569 | epot = -5.48765510170997e-12 | etot = 10937.4995110569
329  ekin = 10937.4995110569 | epot = -5.48765510170997e-12 | etot = 10937.4995110569
330  ekin = 10937.4995110569 | epot = -5.48765510170996e-12 | etot = 10937.4995110569
331  ekin = 10937.4995110569 | epot = -5.48765510170996e-12 | etot = 10937.4995110569
332  ekin = 10937.4995110569 | epot = -5.48765510170995e-12 | etot = 10937.4995110569
333  ekin = 10937.4995110569 | epot = -5.48765510170995e-12 | etot = 10937.4995110569
334  ekin = 10937.4995110569 | epot = -5.48765510170995e-12 | etot = 10937.4995110569
335  ekin = 10937.4995110569 | epot = -5.48765510170994e-12 | etot = 10937.4995110569
336  ekin = 10937.4995110569 | epot = -5.48765510170994e-12 | etot = 10937.4995110569
337  ekin = 10937.4995110569 | epot = -5.48765510170993e-12 | etot = 10937.4995110569
338  ekin = 10937.4995110569 | epot = -5.48765510170993e-12 | etot = 10937.4995110569
339  ekin = 10937.4995110569 | epot = -5.48765510170992e-12 | etot = 10937.4995110569
340  ekin = 10937.4995110569 | epot = -5.48765510170992e-12 | etot = 10937.4995110569
341  ekin = 10937.4995110569 | epot = -5.48765510170991e-12 | etot = 10937.4995110569
342  ekin = 10937.4995110569 | epot = -5.48765510170991e-12 | etot = 10937.4995110569
343  ekin = 10937.4995110569 | epot = -5.48765510170991e-12 | etot = 10937.4995110569
344  ekin = 10937.4995110569 | epot = -5.4876551017099e-12 | etot = 10937.4995110569
345  ekin = 10937.4995110569 | epot = -5.4876551017099e-12 | etot = 10937.4995110569
346  ekin = 10937.4995110569 | epot = -5.4876551017099e-12 | etot = 10937.4995110569
347  ekin = 10937.4995110569 | epot = -5.48765510170989e-12 | etot = 10937.4995110569
348  ekin = 10937.4995110569 | epot = -5.48765510170989e-12 | etot = 10937.4995110569
349  ekin = 10937.4995110569 | epot = -5.48765510170989e-12 | etot = 10937.4995110569
350  ekin = 10937.4995110569 | epot = -5.48765510170989e-12 | etot = 10937.4995110569
351  ekin = 10937.4995110569 | epot = -5.48765510170988e-12 | etot = 10937.4995110569
352  ekin = 10937.4995110569 | epot = -5.48765510170988e-12 | etot = 10937.4995110569
353  ekin = 10937.4995110569 | epot = -5.48765510170988e-12 | etot = 10937.4995110569
354  ekin = 10937.4995110569 | epot = -5.48765510170987e-12 | etot = 10937.4995110569
355  ekin = 10937.4995110569 | epot = -5.48765510170987e-12 | etot = 10937.4995110569
356  ekin = 10937.4995110569 | epot = -5.48765510170987e-12 | etot = 10937.4995110569
357  ekin = 10937.4995110569 | epot = -5.48765510170987e-12 | etot = 10937.4995110569
358  ekin = 10937.4995110569 | epot = -5.48765510170986e-12 | etot = 10937.4995110569
359  ekin = 10937.4995110569 | epot = -5.48765510170986e-12 | etot = 10937.4995110569
360  ekin = 10937.4995110569 | epot = -5.48765510170986e-12 | etot = 10937.4995110569
361  ekin = 10937.4995110569 | epot = -5.48765510170985e-12 | etot = 10937.4995110569
362  ekin = 10937.4995110569 | epot = -5.48765510170985e-12 | etot = 10937.4995110569
363  ekin = 10937.4995110569 | epot = -5.48765510170985e-12 | etot = 10937.4995110569
364  ekin = 10937.4995110569 | epot = -5.48765510170984e-12 | etot = 10937.4995110569
365  ekin = 10937.4995110569 | epot = -5.48765510170984e-12 | etot = 10937.4995110569
366  ekin = 10937.4995110569 | epot = -5.48765510170984e-12 | etot = 10937.4995110569
367  ekin = 10937.4995110569 | epot = -5.48765510170983e-12 | etot = 10937.4995110569
368  ekin = 10937.4995110569 | epot = -5.48765510170983e-12 | etot = 10937.4995110569
369  ekin = 10937.4995110569 | epot = -5.48765510170983e-12 | etot = 10937.4995110569
370  ekin = 10937.4995110569 | epot = -5.48765510170982e-12 | etot = 10937.4995110569
371  ekin = 10937.4995110569 | epot = -5.48765510170982e-12 | etot = 10937.4995110569
372  ekin = 10937.4995110569 | epot = -5.48765510170982e-12 | etot = 10937.4995110569
373  ekin = 10937.4995110569 | epot = -5.48765510170981e-12 | etot = 10937.4995110569
374  ekin = 10937.4995110569 | epot = -5.48765510170982e-12 | etot = 10937.4995110569
375  ekin = 10937.4995110569 | epot = -5.48765510170982e-12 | etot = 10937.4995110569
376  ekin = 10937.4995110569 | epot = -5.48765510170982e-12 | etot = 10937.4995110569
377  ekin = 10937.4995110569 | epot = -5.48765510170982e-12 | etot = 10937.4995110569
378  ekin = 10937.4995110569 | epot = -5.48765510170982e-12 | etot = 10937.4995110569
379  ekin = 10937.4995110569 | epot = -5.48765510170982e-12 | etot = 10937.4995110569
380  ekin = 10937.4995110569 | epot = -5.48765510170982e-12 | etot = 10937.4995110569
381  ekin = 10937.4995110569 | epot = -5.48765510170983e-12 | etot = 10937.4995110569
382  ekin = 10937.4995110569 | epot = -5.48765510170983e-12 | etot = 10937.4995110569
383  ekin = 10937.4995110569 | epot = -5.48765510170983e-12 | etot = 10937.4995110569
384  ekin = 10937.4995110569 | epot = -5.48765510170983e-12 | etot = 10937.4995110569
385  ekin = 10937.4995110569 | epot = -5.48765510170983e-12 | etot = 10937.4995110569
386  ekin = 10937.4995110569 | epot = -5.48765510170984e-12 | etot = 10937.4995110569
387  ekin = 10937.4995110569 | epot = -5.48765510170984e-12 | etot = 10937.4995110569
388  ekin = 10937.4995110569 | epot = -5.48765510170984e-12 | etot = 10937.4995110569
389  ekin = 10937.4995110569 | epot = -5.48765510170984e-12 | etot = 10937.4995110569
390  ekin = 10937.4995110569 | epot = -5.48765510170984e-12 | etot = 10937.4995110569
391  ekin = 10937.4995110569 | epot = -5.48765510170984e-12 | etot = 10937.4995110569
392  ekin = 10937.4995110569 | epot = -5.48765510170985e-12 | etot = 10937.4995110569
393  ekin = 10937.4995110569 | epot = -5.48765510170985e-12 | etot = 10937.4995110569
394  ekin = 10937.4995110569 | epot = -5.48765510170985e-12 | etot = 10937.4995110569
395  ekin = 10937.4995110569 | epot = -5.48765510170985e-12 | etot = 10937.4995110569
396  ekin = 10937.4995110569 | epot = -5.48765510170985e-12 | etot = 10937.4995110569
397  ekin = 10937.4995110569 | epot = -5.48765510170985e-12 | etot = 10937.4995110569
398  ekin = 10937.4995110569 | epot = -5.48765510170985e-12 | etot = 10937.4995110569
399  ekin = 10937.4995110569 | epot = -5.48765510170986e-12 | etot = 10937.4995110569
400  ekin = 10937.4995110569 | epot = -5.48765510170986e-12 | etot = 10937.4995110569
401  ekin = 10937.4995110569 | epot = -5.48765510170986e-12 | etot = 10937.4995110569
402  ekin = 10937.4995110569 | epot = -5.48765510170986e-12 | etot = 10937.4995110569
403  ekin = 10937.4995110569 | epot = -5.48765510170986e-12 | etot = 10937.4995110569
404  ekin = 10937.4995110569 | epot = -5.48765510170987e-12 | etot = 10937.4995110569
405  ekin = 10937.4995110569 | epot = -5.48765510170987e-12 | etot = 10937.4995110569
406  ekin = 10937.4995110569 | epot = -5.48765510170987e-12 | etot = 10937.4995110569
407  ekin = 10937.4995110569 | epot = -5.48765510170987e-12 | etot = 10937.4995110569
408  ekin = 10937.4995110569 | epot = -5.48765510170987e-12 | etot = 10937.4995110569
409  ekin = 10937.4995110569 | epot = -5.48765510170987e-12 | etot = 10937.4995110569
410  ekin = 10937.4995110569 | epot = -5.48765510170988e-12 | etot = 10937.4995110569
411  ekin = 10937.4995110569 | epot = -5.48765510170988e-12 | etot = 10937.4995110569
412  ekin = 10937.4995110569 | epot = -5.48765510170988e-12 | etot = 10937.4995110569
413  ekin = 10937.4995110569 | epot = -5.48765510170988e-12 | etot = 10937.4995110569
414  ekin = 10937.4995110569 | epot = -5.48765510170989e-12 | etot = 10937.4995110569
415  ekin = 10937.4995110569 | epot = -5.48765510170988e-12 | etot = 10937.4995110569
416  ekin = 10937.4995110569 | epot = -5.48765510170989e-12 | etot = 10937.4995110569
417  ekin = 10937.4995110569 | epot = -5.48765510170989e-12 | etot = 10937.4995110569
418  ekin = 10937.4995110569 | epot = -5.48765510170989e-12 | etot = 10937.4995110569
419  ekin = 10937.4995110569 | epot = -5.48765510170989e-12 | etot = 10937.4995110569
420  ekin = 10937.4995110569 | epot = -5.48765510170989e-12 | etot = 10937.4995110569
421  ekin = 10937.4995110569 | epot = -5.4876551017099e-12 | etot = 10937.4995110569
422  ekin = 10937.4995110569 | epot = -5.4876551017099e-12 | etot = 10937.4995110569
423  ekin = 10937.4995110569 | epot = -5.4876551017099e-12 | etot = 10937.4995110569
424  ekin = 10937.4995110569 | epot = -5.4876551017099e-12 | etot = 10937.4995110569
425  ekin = 10937.4995110569 | epot = -5.4876551017099e-12 | etot = 10937.4995110569
426  ekin = 10937.4995110569 | epot = -5.4876551017099e-12 | etot = 10937.4995110569
427  ekin = 10937.4995110569 | epot = -5.4876551017099e-12 | etot = 10937.4995110569
428  ekin = 10937.4995110569 | epot = -5.48765510170991e-12 | etot = 10937.4995110569
429  ekin = 10937.4995110569 | epot = -5.48765510170991e-12 | etot = 10937.4995110569
430  ekin = 10937.4995110569 | epot = -5.48765510170991e-12 | etot = 10937.4995110569
431  ekin = 10937.4995110569 | epot = -5.48765510170991e-12 | etot = 10937.4995110569
432  ekin = 10937.4995110569 | epot = -5.48765510170991e-12 | etot = 10937.4995110569
433  ekin = 10937.4995110569 | epot = -5.48765510170992e-12 | etot = 10937.4995110569
434  ekin = 10937.4995110569 | epot = -5.48765510170992e-12 | etot = 10937.4995110569
435  ekin = 10937.4995110569 | epot = -5.48765510170992e-12 | etot = 10937.4995110569
436  ekin = 10937.4995110569 | epot = -5.48765510170992e-12 | etot = 10937.4995110569
437  ekin = 10937.4995110569 | epot = -5.48765510170992e-12 | etot = 10937.4995110569
438  ekin = 10937.4995110569 | epot = -5.48765510170992e-12 | etot = 10937.4995110569
439  ekin = 10937.4995110569 | epot = -5.48765510170993e-12 | etot = 10937.4995110569
440  ekin = 10937.4995110569 | epot = -5.48765510170993e-12 | etot = 10937.4995110569
441  ekin = 10937.4995110569 | epot = -5.48765510170993e-12 | etot = 10937.4995110569
442  ekin = 10937.4995110569 | epot = -5.48765510170993e-12 | etot = 10937.4995110569
443  ekin = 10937.4995110569 | epot = -5.48765510170993e-12 | etot = 10937.4995110569
444  ekin = 10937.4995110569 | epot = -5.48765510170993e-12 | etot = 10937.4995110569
445  ekin = 10937.4995110569 | epot = -5.48765510170993e-12 | etot = 10937.4995110569
446  ekin = 10937.4995110569 | epot = -5.48765510170994e-12 | etot = 10937.4995110569
447  ekin = 10937.4995110569 | epot = -5.48765510170995e-12 | etot = 10937.4995110569
448  ekin = 10937.4995110569 | epot = -5.48765510170995e-12 | etot = 10937.4995110569
449  ekin = 10937.4995110569 | epot = -5.48765510170996e-12 | etot = 10937.4995110569
450  ekin = 10937.4995110569 | epot = -5.48765510170996e-12 | etot = 10937.4995110569
451  ekin = 10937.4995110569 | epot = -5.48765510170997e-12 | etot = 10937.4995110569
452  ekin = 10937.4995110569 | epot = -5.48765510170997e-12 | etot = 10937.4995110569
453  ekin = 10937.4995110569 | epot = -5.48765510170998e-12 | etot = 10937.4995110569
454  ekin = 10937.4995110569 | epot = -5.48765510170998e-12 | etot = 10937.4995110569
455  ekin = 10937.4995110569 | epot = -5.48765510170998e-12 | etot = 10937.4995110569
456  ekin = 10937.4995110569 | epot = -5.48765510170999e-12 | etot = 10937.4995110569
457  ekin = 10937.4995110569 | epot = -5.48765510170999e-12 | etot = 10937.4995110569
458  ekin = 10937.4995110569 | epot = -5.48765510171e-12 | etot = 10937.4995110569
459  ekin = 10937.4995110569 | epot = -5.48765510171e-12 | etot = 10937.4995110569
460  ekin = 10937.4995110569 | epot = -5.48765510171001e-12 | etot = 10937.4995110569
461  ekin = 10937.4995110569 | epot = -5.48765510171001e-12 | etot = 10937.4995110569
462  ekin = 10937.4995110569 | epot = -5.48765510171001e-12 | etot = 10937.4995110569
463  ekin = 10937.4995110569 | epot = -5.48765510171002e-12 | etot = 10937.4995110569
464  ekin = 10937.4995110569 | epot = -5.48765510171003e-12 | etot = 10937.4995110569
465  ekin = 10937.4995110569 | epot = -5.48765510171003e-12 | etot = 10937.4995110569
466  ekin = 10937.4995110569 | epot = -5.48765510171003e-12 | etot = 10937.4995110569
467  ekin = 10937.4995110569 | epot = -5.48765510171004e-12 | etot = 10937.4995110569
468  ekin = 10937.4995110569 | epot = -5.48765510171004e-12 | etot = 10937.4995110569
469  ekin = 10937.4995110569 | epot = -5.48765510171004e-12 | etot = 10937.4995110569
470  ekin = 10937.4995110569 | epot = -5.48765510171004e-12 | etot = 10937.4995110569
471  ekin = 10937.4995110569 | epot = -5.48765510171005e-12 | etot = 10937.4995110569
472  ekin = 10937.4995110569 | epot = -5.48765510171005e-12 | etot = 10937.4995110569
473  ekin = 10937.4995110569 | epot = -5.48765510171005e-12 | etot = 10937.4995110569
474  ekin = 10937.4995110569 | epot = -5.48765510171005e-12 | etot = 10937.4995110569
475  ekin = 10937.4995110569 | epot = -5.48765510171005e-12 | etot = 10937.4995110569
476  ekin = 10937.4995110569 | epot = -5.48765510171006e-12 | etot = 10937.4995110569
477  ekin = 10937.4995110569 | epot = -5.48765510171006e-12 | etot = 10937.4995110569
478  ekin = 10937.4995110569 | epot = -5.48765510171006e-12 | etot = 10937.4995110569
479  ekin = 10937.4995110569 | epot = -5.48765510171006e-12 | etot = 10937.4995110569
480  ekin = 10937.4995110569 | epot = -5.48765510171007e-12 | etot = 10937.4995110569
481  ekin = 10937.4995110569 | epot = -5.48765510171007e-12 | etot = 10937.4995110569
482  ekin = 10937.4995110569 | epot = -5.48765510171007e-12 | etot = 10937.4995110569
483  ekin = 10937.4995110569 | epot = -5.48765510171007e-12 | etot = 10937.4995110569
484  ekin = 10937.4995110569 | epot = -5.48765510171007e-12 | etot = 10937.4995110569
485  ekin = 10937.4995110569 | epot = -5.48765510171008e-12 | etot = 10937.4995110569
486  ekin = 10937.4995110569 | epot = -5.48765510171008e-12 | etot = 10937.4995110569
487  ekin = 10937.4995110569 | epot = -5.48765510171008e-12 | etot = 10937.4995110569
488  ekin = 10937.4995110569 | epot = -5.48765510171008e-12 | etot = 10937.4995110569
489  ekin = 10937.4995110569 | epot = -5.48765510171008e-12 | etot = 10937.4995110569
490  ekin = 10937.4995110569 | epot = -5.48765510171009e-12 | etot = 10937.4995110569
491  ekin = 10937.4995110569 | epot = -5.48765510171009e-12 | etot = 10937.4995110569
492  ekin = 10937.4995110569 | epot = -5.48765510171009e-12 | etot = 10937.4995110569
493  ekin = 10937.4995110569 | epot = -5.48765510171009e-12 | etot = 10937.4995110569
494  ekin = 10937.4995110569 | epot = -5.48765510171009e-12 | etot = 10937.4995110569
495  ekin = 10937.4995110569 | epot = -5.4876551017101e-12 | etot = 10937.4995110569
496  ekin = 10937.4995110569 | epot = -5.4876551017101e-12 | etot = 10937.4995110569
497  ekin = 10937.4995110569 | epot = -5.48765510171011e-12 | etot = 10937.4995110569
498  ekin = 10937.4995110569 | epot = -5.48765510171011e-12 | etot = 10937.4995110569
499  ekin = 10937.4995110569 | epot = -5.48765510171011e-12 | etot = 10937.4995110569
500  ekin = 10937.4995110569 | epot = -5.48765510171011e-12 | etot = 10937.4995110569
501  ekin = 10937.4995110569 | epot = -5.48765510171012e-12 | etot = 10937.4995110569
502  ekin = 10937.4995110569 | epot = -5.48765510171012e-12 | etot = 10937.4995110569
503  ekin = 10937.4995110569 | epot = -5.48765510171012e-12 | etot = 10937.4995110569
504  ekin = 10937.4995110569 | epot = -5.48765510171012e-12 | etot = 10937.4995110569
505  ekin = 10937.4995110569 | epot = -5.48765510171012e-12 | etot = 10937.4995110569
506  ekin = 10937.4995110569 | epot = -5.48765510171013e-12 | etot = 10937.4995110569
507  ekin = 10937.4995110569 | epot = -5.48765510171013e-12 | etot = 10937.4995110569
508  ekin = 10937.4995110569 | epot = -5.48765510171013e-12 | etot = 10937.4995110569
509  ekin = 10937.4995110569 | epot = -5.48765510171013e-12 | etot = 10937.4995110569
510  ekin = 10937.4995110569 | epot = -5.48765510171013e-12 | etot = 10937.4995110569
511  ekin = 10937.4995110569 | epot = -5.48765510171014e-12 | etot = 10937.4995110569
512  ekin = 10937.4995110569 | epot = -5.48765510171014e-12 | etot = 10937.4995110569
513  ekin = 10937.4995110569 | epot = -5.48765510171014e-12 | etot = 10937.4995110569
514  ekin = 10937.4995110569 | epot = -5.48765510171014e-12 | etot = 10937.4995110569
515  ekin = 10937.4995110569 | epot = -5.48765510171015e-12 | etot = 10937.4995110569
516  ekin = 10937.4995110569 | epot = -5.48765510171015e-12 | etot = 10937.4995110569
517  ekin = 10937.4995110569 | epot = -5.48765510171015e-12 | etot = 10937.4995110569
518  ekin = 10937.4995110569 | epot = -5.48765510171015e-12 | etot = 10937.4995110569
519  ekin = 10937.4995110569 | epot = -5.48765510171015e-12 | etot = 10937.4995110569
520  ekin = 10937.4995110569 | epot = -5.48765510171016e-12 | etot = 10937.4995110569
521  ekin = 10937.4995110569 | epot = -5.48765510171016e-12 | etot = 10937.4995110569
522  ekin = 10937.4995110569 | epot = -5.48765510171016e-12 | etot = 10937.4995110569
523  ekin = 10937.4995110569 | epot = -5.48765510171016e-12 | etot = 10937.4995110569
524  ekin = 10937.4995110569 | epot = -5.48765510171017e-12 | etot = 10937.4995110569
525  ekin = 10937.4995110569 | epot = -5.48765510171017e-12 | etot = 10937.4995110569
526  ekin = 10937.4995110569 | epot = -5.48765510171017e-12 | etot = 10937.4995110569
527  ekin = 10937.4995110569 | epot = -5.48765510171017e-12 | etot = 10937.4995110569
528  ekin = 10937.4995110569 | epot = -5.48765510171018e-12 | etot = 10937.4995110569
529  ekin = 10937.4995110569 | epot = -5.48765510171018e-12 | etot = 10937.4995110569
530  ekin = 10937.4995110569 | epot = -5.48765510171018e-12 | etot = 10937.4995110569
531  ekin = 10937.4995110569 | epot = -5.48765510171018e-12 | etot = 10937.4995110569
532  ekin = 10937.4995110569 | epot = -5.48765510171018e-12 | etot = 10937.4995110569
533  ekin = 10937.4995110569 | epot = -5.48765510171018e-12 | etot = 10937.4995110569
534  ekin = 10937.4995110569 | epot = -5.48765510171018e-12 | etot = 10937.4995110569
535  ekin = 10937.4995110569 | epot = -5.48765510171019e-12 | etot = 10937.4995110569
536  ekin = 10937.4995110569 | epot = -5.48765510171019e-12 | etot = 10937.4995110569
537  ekin = 10937.4995110569 | epot = -5.48765510171019e-12 | etot = 10937.4995110569
538  ekin = 10937.4995110569 | epot = -5.4876551017102e-12 | etot = 10937.4995110569
539  ekin = 10937.4995110569 | epot = -5.4876551017102e-12 | etot = 10937.4995110569
540  ekin = 10937.4995110569 | epot = -5.4876551017102e-12 | etot = 10937.4995110569
541  ekin = 10937.4995110569 | epot = -5.4876551017102e-12 | etot = 10937.4995110569
542  ekin = 10937.4995110569 | epot = -5.4876551017102e-12 | etot = 10937.4995110569
543  ekin = 10937.4995110569 | epot = -5.48765510171021e-12 | etot = 10937.4995110569
544  ekin = 10937.4995110569 | epot = -5.48765510171021e-12 | etot = 10937.4995110569
545  ekin = 10937.4995110569 | epot = -5.48765510171021e-12 | etot = 10937.4995110569
546  ekin = 10937.4995110569 | epot = -5.48765510171021e-12 | etot = 10937.4995110569
547  ekin = 10937.4995110569 | epot = -5.48765510171021e-12 | etot = 10937.4995110569
548  ekin = 10937.4995110569 | epot = -5.48765510171021e-12 | etot = 10937.4995110569
549  ekin = 10937.4995110569 | epot = -5.48765510171022e-12 | etot = 10937.4995110569
550  ekin = 10937.4995110569 | epot = -5.48765510171022e-12 | etot = 10937.4995110569
551  ekin = 10937.4995110569 | epot = -5.48765510171022e-12 | etot = 10937.4995110569
552  ekin = 10937.4995110569 | epot = -5.48765510171022e-12 | etot = 10937.4995110569
553  ekin = 10937.4995110569 | epot = -5.48765510171023e-12 | etot = 10937.4995110569
554  ekin = 10937.4995110569 | epot = -5.48765510171023e-12 | etot = 10937.4995110569
555  ekin = 10937.4995110569 | epot = -5.48765510171023e-12 | etot = 10937.4995110569
556  ekin = 10937.4995110569 | epot = -5.48765510171023e-12 | etot = 10937.4995110569
557  ekin = 10937.4995110569 | epot = -5.48765510171023e-12 | etot = 10937.4995110569
558  ekin = 10937.4995110569 | epot = -5.48765510171024e-12 | etot = 10937.4995110569
559  ekin = 10937.4995110569 | epot = -5.48765510171024e-12 | etot = 10937.4995110569
560  ekin = 10937.4995110569 | epot = -5.48765510171024e-12 | etot = 10937.4995110569
561  ekin = 10937.4995110569 | epot = -5.48765510171025e-12 | etot = 10937.4995110569
562  ekin = 10937.4995110569 | epot = -5.48765510171025e-12 | etot = 10937.4995110569
563  ekin = 10937.4995110569 | epot = -5.48765510171026e-12 | etot = 10937.4995110569
564  ekin = 10937.4995110569 | epot = -5.48765510171026e-12 | etot = 10937.4995110569
565  ekin = 10937.4995110569 | epot = -5.48765510171026e-12 | etot = 10937.4995110569
566  ekin = 10937.4995110569 | epot = -5.48765510171026e-12 | etot = 10937.4995110569
567  ekin = 10937.4995110569 | epot = -5.48765510171027e-12 | etot = 10937.4995110569
568  ekin = 10937.4995110569 | epot = -5.48765510171027e-12 | etot = 10937.4995110569
569  ekin = 10937.4995110569 | epot = -5.48765510171028e-12 | etot = 10937.4995110569
570  ekin = 10937.4995110569 | epot = -5.48765510171028e-12 | etot = 10937.4995110569
571  ekin = 10937.4995110569 | epot = -5.48765510171028e-12 | etot = 10937.4995110569
572  ekin = 10937.4995110569 | epot = -5.48765510171028e-12 | etot = 10937.4995110569
573  ekin = 10937.4995110569 | epot = -5.48765510171029e-12 | etot = 10937.4995110569
574  ekin = 10937.4995110569 | epot = -5.48765510171029e-12 | etot = 10937.4995110569
575  ekin = 10937.4995110569 | epot = -5.4876551017103e-12 | etot = 10937.4995110569
576  ekin = 10937.4995110569 | epot = -5.4876551017103e-12 | etot = 10937.4995110569
577  ekin = 10937.4995110569 | epot = -5.4876551017103e-12 | etot = 10937.4995110569
578  ekin = 10937.4995110569 | epot = -5.48765510171031e-12 | etot = 10937.4995110569
579  ekin = 10937.4995110569 | epot = -5.48765510171031e-12 | etot = 10937.4995110569
580  ekin = 10937.4995110569 | epot = -5.48765510171031e-12 | etot = 10937.4995110569
581  ekin = 10937.4995110569 | epot = -5.48765510171032e-12 | etot = 10937.4995110569
582  ekin = 10937.4995110569 | epot = -5.48765510171032e-12 | etot = 10937.4995110569
583  ekin = 10937.4995110569 | epot = -5.48765510171033e-12 | etot = 10937.4995110569
584  ekin = 10937.4995110569 | epot = -5.48765510171033e-12 | etot = 10937.4995110569
585  ekin = 10937.4995110569 | epot = -5.48765510171033e-12 | etot = 10937.4995110569
586  ekin = 10937.4995110569 | epot = -5.48765510171033e-12 | etot = 10937.4995110569
587  ekin = 10937.4995110569 | epot = -5.48765510171034e-12 | etot = 10937.4995110569
588  ekin = 10937.4995110569 | epot = -5.48765510171034e-12 | etot = 10937.4995110569
589  ekin = 10937.4995110569 | epot = -5.48765510171035e-12 | etot = 10937.4995110569
590  ekin = 10937.4995110569 | epot = -5.48765510171035e-12 | etot = 10937.4995110569
591  ekin = 10937.4995110569 | epot = -5.48765510171035e-12 | etot = 10937.4995110569
592  ekin = 10937.4995110569 | epot = -5.48765510171035e-12 | etot = 10937.4995110569
593  ekin = 10937.4995110569 | epot = -5.48765510171036e-12 | etot = 10937.4995110569
594  ekin = 10937.4995110569 | epot = -5.48765510171036e-12 | etot = 10937.4995110569
595  ekin = 10937.4995110569 | epot = -5.48765510171036e-12 | etot = 10937.4995110569
596  ekin = 10937.4995110569 | epot = -5.48765510171037e-12 | etot = 10937.4995110569
597  ekin = 10937.4995110569 | epot = -5.48765510171037e-12 | etot = 10937.4995110569
598  ekin = 10937.4995110569 | epot = -5.48765510171037e-12 | etot = 10937.4995110569
599  ekin = 10937.4995110569 | epot = -5.48765510171038e-12 | etot = 10937.4995110569
600  ekin = 10937.4995110569 | epot = -5.48765510171038e-12 | etot = 10937.4995110569
601  ekin = 10937.4995110569 | epot = -5.48765510171039e-12 | etot = 10937.4995110569
602  ekin = 10937.4995110569 | epot = -5.48765510171039e-12 | etot = 10937.4995110569
603  ekin = 10937.4995110569 | epot = -5.48765510171039e-12 | etot = 10937.4995110569
604  ekin = 10937.4995110569 | epot = -5.48765510171039e-12 | etot = 10937.4995110569
605  ekin = 10937.4995110569 | epot = -5.4876551017104e-12 | etot = 10937.4995110569
606  ekin = 10937.4995110569 | epot = -5.4876551017104e-12 | etot = 10937.4995110569
607  ekin = 10937.4995110569 | epot = -5.48765510171041e-12 | etot = 10937.4995110569
608  ekin = 10937.4995110569 | epot = -5.48765510171041e-12 | etot = 10937.4995110569
609  ekin = 10937.4995110569 | epot = -5.48765510171041e-12 | etot = 10937.4995110569
610  ekin = 10937.4995110569 | epot = -5.48765510171042e-12 | etot = 10937.4995110569
611  ekin = 10937.4995110569 | epot = -5.48765510171042e-12 | etot = 10937.4995110569
612  ekin = 10937.4995110569 | epot = -5.48765510171042e-12 | etot = 10937.4995110569
613  ekin = 10937.4995110569 | epot = -5.48765510171043e-12 | etot = 10937.4995110569
614  ekin = 10937.4995110569 | epot = -5.48765510171043e-12 | etot = 10937.4995110569
615  ekin = 10937.4995110569 | epot = -5.48765510171043e-12 | etot = 10937.4995110569
616  ekin = 10937.4995110569 | epot = -5.48765510171044e-12 | etot = 10937.4995110569
617  ekin = 10937.4995110569 | epot = -5.48765510171044e-12 | etot = 10937.4995110569
618  ekin = 10937.4995110569 | epot = -5.48765510171045e-12 | etot = 10937.4995110569
619  ekin = 10937.4995110569 | epot = -5.48765510171045e-12 | etot = 10937.4995110569
620  ekin = 10937.4995110569 | epot = -5.48765510171045e-12 | etot = 10937.4995110569
621  ekin = 10937.4995110569 | epot = -5.48765510171045e-12 | etot = 10937.4995110569
622  ekin = 10937.4995110569 | epot = -5.48765510171046e-12 | etot = 10937.4995110569
623  ekin = 10937.4995110569 | epot = -5.48765510171046e-12 | etot = 10937.4995110569
624  ekin = 10937.4995110569 | epot = -5.48765510171047e-12 | etot = 10937.4995110569
625  ekin = 10937.4995110569 | epot = -5.48765510171047e-12 | etot = 10937.4995110569
626  ekin = 10937.4995110569 | epot = -5.48765510171047e-12 | etot = 10937.4995110569
627  ekin = 10937.4995110569 | epot = -5.48765510171048e-12 | etot = 10937.4995110569
628  ekin = 10937.4995110569 | epot = -5.48765510171048e-12 | etot = 10937.4995110569
629  ekin = 10937.4995110569 | epot = -5.48765510171048e-12 | etot = 10937.4995110569
630  ekin = 10937.4995110569 | epot = -5.48765510171049e-12 | etot = 10937.4995110569
631  ekin = 10937.4995110569 | epot = -5.48765510171049e-12 | etot = 10937.4995110569
632  ekin = 10937.4995110569 | epot = -5.48765510171049e-12 | etot = 10937.4995110569
633  ekin = 10937.4995110569 | epot = -5.4876551017105e-12 | etot = 10937.4995110569
634  ekin = 10937.4995110569 | epot = -5.4876551017105e-12 | etot = 10937.4995110569
635  ekin = 10937.4995110569 | epot = -5.48765510171051e-12 | etot = 10937.4995110569
636  ekin = 10937.4995110569 | epot = -5.48765510171051e-12 | etot = 10937.4995110569
637  ekin = 10937.4995110569 | epot = -5.48765510171051e-12 | etot = 10937.4995110569
638  ekin = 10937.4995110569 | epot = -5.48765510171052e-12 | etot = 10937.4995110569
639  ekin = 10937.4995110569 | epot = -5.48765510171052e-12 | etot = 10937.4995110569
640  ekin = 10937.4995110569 | epot = -5.48765510171052e-12 | etot = 10937.4995110569
641  ekin = 10937.4995110569 | epot = -5.48765510171053e-12 | etot = 10937.4995110569
642  ekin = 10937.4995110569 | epot = -5.48765510171053e-12 | etot = 10937.4995110569
643  ekin = 10937.4995110569 | epot = -5.48765510171053e-12 | etot = 10937.4995110569
644  ekin = 10937.4995110569 | epot = -5.48765510171053e-12 | etot = 10937.4995110569
645  ekin = 10937.4995110569 | epot = -5.48765510171054e-12 | etot = 10937.4995110569
646  ekin = 10937.4995110569 | epot = -5.48765510171054e-12 | etot = 10937.4995110569
647  ekin = 10937.4995110569 | epot = -5.48765510171055e-12 | etot = 10937.4995110569
648  ekin = 10937.4995110569 | epot = -5.48765510171055e-12 | etot = 10937.4995110569
649  ekin = 10937.4995110569 | epot = -5.48765510171056e-12 | etot = 10937.4995110569
650  ekin = 10937.4995110569 | epot = -5.48765510171056e-12 | etot = 10937.4995110569
651  ekin = 10937.4995110569 | epot = -5.48765510171057e-12 | etot = 10937.4995110569
652  ekin = 10937.4995110569 | epot = -5.48765510171057e-12 | etot = 10937.4995110569
653  ekin = 10937.4995110569 | epot = -5.48765510171057e-12 | etot = 10937.4995110569
654  ekin = 10937.4995110569 | epot = -5.48765510171058e-12 | etot = 10937.4995110569
655  ekin = 10937.4995110569 | epot = -5.48765510171058e-12 | etot = 10937.4995110569
656  ekin = 10937.4995110569 | epot = -5.48765510171059e-12 | etot = 10937.4995110569
657  ekin = 10937.4995110569 | epot = -5.48765510171059e-12 | etot = 10937.4995110569
658  ekin = 10937.4995110569 | epot = -5.4876551017106e-12 | etot = 10937.4995110569
659  ekin = 10937.4995110569 | epot = -5.4876551017106e-12 | etot = 10937.4995110569
660  ekin = 10937.4995110569 | epot = -5.48765510171061e-12 | etot = 10937.4995110569
661  ekin = 10937.4995110569 | epot = -5.48765510171061e-12 | etot = 10937.4995110569
662  ekin = 10937.4995110569 | epot = -5.48765510171062e-12 | etot = 10937.4995110569
663  ekin = 10937.4995110569 | epot = -5.48765510171062e-12 | etot = 10937.4995110569
664  ekin = 10937.4995110569 | epot = -5.48765510171063e-12 | etot = 10937.4995110569
665  ekin = 10937.4995110569 | epot = -5.48765510171063e-12 | etot = 10937.4995110569
666  ekin = 10937.4995110569 | epot = -5.48765510171063e-12 | etot = 10937.4995110569
667  ekin = 10937.4995110569 | epot = -5.48765510171064e-12 | etot = 10937.4995110569
668  ekin = 10937.4995110569 | epot = -5.48765510171064e-12 | etot = 10937.4995110569
669  ekin = 10937.4995110569 | epot = -5.48765510171065e-12 | etot = 10937.4995110569
670  ekin = 10937.4995110569 | epot = -5.48765510171065e-12 | etot = 10937.4995110569
671  ekin = 10937.4995110569 | epot = -5.48765510171066e-12 | etot = 10937.4995110569
672  ekin = 10937.4995110569 | epot = -5.48765510171066e-12 | etot = 10937.4995110569
673  ekin = 10937.4995110569 | epot = -5.48765510171066e-12 | etot = 10937.4995110569
674  ekin = 10937.4995110569 | epot = -5.48765510171067e-12 | etot = 10937.4995110569
675  ekin = 10937.4995110569 | epot = -5.48765510171067e-12 | etot = 10937.4995110569
676  ekin = 10937.4995110569 | epot = -5.48765510171068e-12 | etot = 10937.4995110569
677  ekin = 10937.4995110569 | epot = -5.48765510171068e-12 | etot = 10937.4995110569
678  ekin = 10937.4995110569 | epot = -5.48765510171069e-12 | etot = 10937.4995110569
679  ekin = 10937.4995110569 | epot = -5.48765510171069e-12 | etot = 10937.4995110569
680  ekin = 10937.4995110569 | epot = -5.4876551017107e-12 | etot = 10937.4995110569
681  ekin = 10937.4995110569 | epot = -5.4876551017107e-12 | etot = 10937.4995110569
682  ekin = 10937.4995110569 | epot = -5.48765510171071e-12 | etot = 10937.4995110569
683  ekin = 10937.4995110569 | epot = -5.48765510171071e-12 | etot = 10937.4995110569
684  ekin = 10937.4995110569 | epot = -5.48765510171071e-12 | etot = 10937.4995110569
685  ekin = 10937.4995110569 | epot = -5.48765510171072e-12 | etot = 10937.4995110569
686  ekin = 10937.4995110569 | epot = -5.48765510171072e-12 | etot = 10937.4995110569
687  ekin = 10937.4995110569 | epot = -5.48765510171073e-12 | etot = 10937.4995110569
688  ekin = 10937.4995110569 | epot = -5.48765510171073e-12 | etot = 10937.4995110569
689  ekin = 10937.4995110569 | epot = -5.48765510171074e-12 | etot = 10937.4995110569
690  ekin = 10937.4995110569 | epot = -5.48765510171074e-12 | etot = 10937.4995110569
691  ekin = 10937.4995110569 | epot = -5.48765510171074e-12 | etot = 10937.4995110569
692  ekin = 10937.4995110569 | epot = -5.48765510171075e-12 | etot = 10937.4995110569
693  ekin = 10937.4995110569 | epot = -5.48765510171075e-12 | etot = 10937.4995110569
694  ekin = 10937.4995110569 | epot = -5.48765510171076e-12 | etot = 10937.4995110569
695  ekin = 10937.4995110569 | epot = -5.48765510171076e-12 | etot = 10937.4995110569
696  ekin = 10937.4995110569 | epot = -5.48765510171077e-12 | etot = 10937.4995110569
697  ekin = 10937.4995110569 | epot = -5.48765510171077e-12 | etot = 10937.4995110569
698  ekin = 10937.4995110569 | epot = -5.48765510171078e-12 | etot = 10937.4995110569
699  ekin = 10937.4995110569 | epot = -5.48765510171078e-12 | etot = 10937.4995110569
700  ekin = 10937.4995110569 | epot = -5.48765510171079e-12 | etot = 10937.4995110569
701  ekin = 10937.4995110569 | epot = -5.48765510171079e-12 | etot = 10937.4995110569
702  ekin = 10937.4995110569 | epot = -5.48765510171079e-12 | etot = 10937.4995110569
703  ekin = 10937.4995110569 | epot = -5.4876551017108e-12 | etot = 10937.4995110569
704  ekin = 10937.4995110569 | epot = -5.4876551017108e-12 | etot = 10937.4995110569
705  ekin = 10937.4995110569 | epot = -5.48765510171081e-12 | etot = 10937.4995110569
706  ekin = 10937.4995110569 | epot = -5.48765510171081e-12 | etot = 10937.4995110569
707  ekin = 10937.4995110569 | epot = -5.48765510171082e-12 | etot = 10937.4995110569
708  ekin = 10937.4995110569 | epot = -5.48765510171082e-12 | etot = 10937.4995110569
709  ekin = 10937.4995110569 | epot = -5.48765510171083e-12 | etot = 10937.4995110569
710  ekin = 10937.4995110569 | epot = -5.48765510171083e-12 | etot = 10937.4995110569
711  ekin = 10937.4995110569 | epot = -5.48765510171084e-12 | etot = 10937.4995110569
712  ekin = 10937.4995110569 | epot = -5.48765510171084e-12 | etot = 10937.4995110569
713  ekin = 10937.4995110569 | epot = -5.48765510171084e-12 | etot = 10937.4995110569
714  ekin = 10937.4995110569 | epot = -5.48765510171085e-12 | etot = 10937.4995110569
715  ekin = 10937.4995110569 | epot = -5.48765510171085e-12 | etot = 10937.4995110569
716  ekin = 10937.4995110569 | epot = -5.48765510171086e-12 | etot = 10937.4995110569
717  ekin = 10937.4995110569 | epot = -5.48765510171086e-12 | etot = 10937.4995110569
718  ekin = 10937.4995110569 | epot = -5.48765510171087e-12 | etot = 10937.4995110569
719  ekin = 10937.4995110569 | epot = -5.48765510171087e-12 | etot = 10937.4995110569
720  ekin = 10937.4995110569 | epot = -5.48765510171088e-12 | etot = 10937.4995110569
721  ekin = 10937.4995110569 | epot = -5.48765510171088e-12 | etot = 10937.4995110569
722  ekin = 10937.4995110569 | epot = -5.48765510171089e-12 | etot = 10937.4995110569
723  ekin = 10937.4995110569 | epot = -5.48765510171089e-12 | etot = 10937.4995110569
724  ekin = 10937.4995110569 | epot = -5.48765510171089e-12 | etot = 10937.4995110569
725  ekin = 10937.4995110569 | epot = -5.4876551017109e-12 | etot = 10937.4995110569
726  ekin = 10937.4995110569 | epot = -5.4876551017109e-12 | etot = 10937.4995110569
727  ekin = 10937.4995110569 | epot = -5.48765510171091e-12 | etot = 10937.4995110569
728  ekin = 10937.4995110569 | epot = -5.48765510171091e-12 | etot = 10937.4995110569
729  ekin = 10937.4995110569 | epot = -5.48765510171092e-12 | etot = 10937.4995110569
730  ekin = 10937.4995110569 | epot = -5.48765510171092e-12 | etot = 10937.4995110569
731  ekin = 10937.4995110569 | epot = -5.48765510171093e-12 | etot = 10937.4995110569
732  ekin = 10937.4995110569 | epot = -5.48765510171093e-12 | etot = 10937.4995110569
733  ekin = 10937.4995110569 | epot = -5.48765510171093e-12 | etot = 10937.4995110569
734  ekin = 10937.4995110569 | epot = -5.48765510171094e-12 | etot = 10937.4995110569
735  ekin = 10937.4995110569 | epot = -5.48765510171094e-12 | etot = 10937.4995110569
736  ekin = 10937.4995110569 | epot = -5.48765510171095e-12 | etot = 10937.4995110569
737  ekin = 10937.4995110569 | epot = -5.48765510171095e-12 | etot = 10937.4995110569
738  ekin = 10937.4995110569 | epot = -5.48765510171096e-12 | etot = 10937.4995110569
739  ekin = 10937.4995110569 | epot = -5.48765510171096e-12 | etot = 10937.4995110569
740  ekin = 10937.4995110569 | epot = -5.48765510171097e-12 | etot = 10937.4995110569
741  ekin = 10937.4995110569 | epot = -5.48765510171097e-12 | etot = 10937.4995110569
742  ekin = 10937.4995110569 | epot = -5.48765510171097e-12 | etot = 10937.4995110569
743  ekin = 10937.4995110569 | epot = -5.48765510171097e-12 | etot = 10937.4995110569
744  ekin = 10937.4995110569 | epot = -5.48765510171098e-12 | etot = 10937.4995110569
745  ekin = 10937.4995110569 | epot = -5.48765510171098e-12 | etot = 10937.4995110569
746  ekin = 10937.4995110569 | epot = -5.48765510171098e-12 | etot = 10937.4995110569
747  ekin = 10937.4995110569 | epot = -5.48765510171098e-12 | etot = 10937.4995110569
748  ekin = 10937.4995110569 | epot = -5.48765510171099e-12 | etot = 10937.4995110569
749  ekin = 10937.4995110569 | epot = -5.48765510171099e-12 | etot = 10937.4995110569
750  ekin = 10937.4995110569 | epot = -5.487655101711e-12 | etot = 10937.4995110569
751  ekin = 10937.4995110569 | epot = -5.487655101711e-12 | etot = 10937.4995110569
752  ekin = 10937.4995110569 | epot = -5.487655101711e-12 | etot = 10937.4995110569
753  ekin = 10937.4995110569 | epot = -5.487655101711e-12 | etot = 10937.4995110569
754  ekin = 10937.4995110569 | epot = -5.48765510171101e-12 | etot = 10937.4995110569
755  ekin = 10937.4995110569 | epot = -5.48765510171101e-12 | etot = 10937.4995110569
756  ekin = 10937.4995110569 | epot = -5.48765510171101e-12 | etot = 10937.4995110569
757  ekin = 10937.4995110569 | epot = -5.48765510171102e-12 | etot = 10937.4995110569
758  ekin = 10937.4995110569 | epot = -5.48765510171102e-12 | etot = 10937.4995110569
759  ekin = 10937.4995110569 | epot = -5.48765510171102e-12 | etot = 10937.4995110569
760  ekin = 10937.4995110569 | epot = -5.48765510171103e-12 | etot = 10937.4995110569
761  ekin = 10937.4995110569 | epot = -5.48765510171103e-12 | etot = 10937.4995110569
762  ekin = 10937.4995110569 | epot = -5.48765510171103e-12 | etot = 10937.4995110569
763  ekin = 10937.4995110569 | epot = -5.48765510171103e-12 | etot = 10937.4995110569
764  ekin = 10937.4995110569 | epot = -5.48765510171104e-12 | etot = 10937.4995110569
765  ekin = 10937.4995110569 | epot = -5.48765510171104e-12 | etot = 10937.4995110569
766  ekin = 10937.4995110569 | epot = -5.48765510171104e-12 | etot = 10937.4995110569
767  ekin = 10937.4995110569 | epot = -5.48765510171105e-12 | etot = 10937.4995110569
768  ekin = 10937.4995110569 | epot = -5.48765510171105e-12 | etot = 10937.4995110569
769  ekin = 10937.4995110569 | epot = -5.48765510171105e-12 | etot = 10937.4995110569
770  ekin = 10937.4995110569 | epot = -5.48765510171106e-12 | etot = 10937.4995110569
771  ekin = 10937.4995110569 | epot = -5.48765510171106e-12 | etot = 10937.4995110569
772  ekin = 10937.4995110569 | epot = -5.48765510171106e-12 | etot = 10937.4995110569
773  ekin = 10937.4995110569 | epot = -5.48765510171107e-12 | etot = 10937.4995110569
774  ekin = 10937.4995110569 | epot = -5.48765510171107e-12 | etot = 10937.4995110569
775  ekin = 10937.4995110569 | epot = -5.48765510171107e-12 | etot = 10937.4995110569
776  ekin = 10937.4995110569 | epot = -5.48765510171108e-12 | etot = 10937.4995110569
777  ekin = 10937.4995110569 | epot = -5.48765510171108e-12 | etot = 10937.4995110569
778  ekin = 10937.4995110569 | epot = -5.48765510171108e-12 | etot = 10937.4995110569
779  ekin = 10937.4995110569 | epot = -5.48765510171108e-12 | etot = 10937.4995110569
780  ekin = 10937.4995110569 | epot = -5.48765510171109e-12 | etot = 10937.4995110569
781  ekin = 10937.4995110569 | epot = -5.48765510171109e-12 | etot = 10937.4995110569
782  ekin = 10937.4995110569 | epot = -5.48765510171109e-12 | etot = 10937.4995110569
783  ekin = 10937.4995110569 | epot = -5.4876551017111e-12 | etot = 10937.4995110569
784  ekin = 10937.4995110569 | epot = -5.4876551017111e-12 | etot = 10937.4995110569
785  ekin = 10937.4995110569 | epot = -5.4876551017111e-12 | etot = 10937.4995110569
786  ekin = 10937.4995110569 | epot = -5.48765510171111e-12 | etot = 10937.4995110569
787  ekin = 10937.4995110569 | epot = -5.48765510171111e-12 | etot = 10937.4995110569
788  ekin = 10937.4995110569 | epot = -5.48765510171111e-12 | etot = 10937.4995110569
789  ekin = 10937.4995110569 | epot = -5.48765510171111e-12 | etot = 10937.4995110569
790  ekin = 10937.4995110569 | epot = -5.48765510171112e-12 | etot = 10937.4995110569
791  ekin = 10937.4995110569 | epot = -5.48765510171112e-12 | etot = 10937.4995110569
792  ekin = 10937.4995110569 | epot = -5.48765510171113e-12 | etot = 10937.4995110569
793  ekin = 10937.4995110569 | epot = -5.48765510171113e-12 | etot = 10937.4995110569
794  ekin = 10937.4995110569 | epot = -5.48765510171113e-12 | etot = 10937.4995110569
795  ekin = 10937.4995110569 | epot = -5.48765510171114e-12 | etot = 10937.4995110569
796  ekin = 10937.4995110569 | epot = -5.48765510171114e-12 | etot = 10937.4995110569
797  ekin = 10937.4995110569 | epot = -5.48765510171114e-12 | etot = 10937.4995110569
798  ekin = 10937.4995110569 | epot = -5.48765510171114e-12 | etot = 10937.4995110569
799  ekin = 10937.4995110569 | epot = -5.48765510171114e-12 | etot = 10937.4995110569
800  ekin = 10937.4995110569 | epot = -5.48765510171115e-12 | etot = 10937.4995110569
801  ekin = 10937.4995110569 | epot = -5.48765510171115e-12 | etot = 10937.4995110569
802  ekin = 10937.4995110569 | epot = -5.48765510171115e-12 | etot = 10937.4995110569
803  ekin = 10937.4995110569 | epot = -5.48765510171116e-12 | etot = 10937.4995110569
804  ekin = 10937.4995110569 | epot = -5.48765510171116e-12 | etot = 10937.4995110569
805  ekin = 10937.4995110569 | epot = -5.48765510171116e-12 | etot = 10937.4995110569
806  ekin = 10937.4995110569 | epot = -5.48765510171117e-12 | etot = 10937.4995110569
807  ekin = 10937.4995110569 | epot = -5.48765510171117e-12 | etot = 10937.4995110569
808  ekin = 10937.4995110569 | epot = -5.48765510171117e-12 | etot = 10937.4995110569
809  ekin = 10937.4995110569 | epot = -5.48765510171118e-12 | etot = 10937.4995110569
810  ekin = 10937.4995110569 | epot = -5.48765510171118e-12 | etot = 10937.4995110569
811  ekin = 10937.4995110569 | epot = -5.48765510171118e-12 | etot = 10937.4995110569
812  ekin = 10937.4995110569 | epot = -5.48765510171119e-12 | etot = 10937.4995110569
813  ekin = 10937.4995110569 | epot = -5.48765510171119e-12 | etot = 10937.4995110569
814  ekin = 10937.4995110569 | epot = -5.48765510171119e-12 | etot = 10937.4995110569
815  ekin = 10937.4995110569 | epot = -5.4876551017112e-12 | etot = 10937.4995110569
816  ekin = 10937.4995110569 | epot = -5.4876551017112e-12 | etot = 10937.4995110569
817  ekin = 10937.4995110569 | epot = -5.4876551017112e-12 | etot = 10937.4995110569
818  ekin = 10937.4995110569 | epot = -5.4876551017112e-12 | etot = 10937.4995110569
819  ekin = 10937.4995110569 | epot = -5.48765510171121e-12 | etot = 10937.4995110569
820  ekin = 10937.4995110569 | epot = -5.48765510171121e-12 | etot = 10937.4995110569
821  ekin = 10937.4995110569 | epot = -5.48765510171121e-12 | etot = 10937.4995110569
822  ekin = 10937.4995110569 | epot = -5.48765510171122e-12 | etot = 10937.4995110569
823  ekin = 10937.4995110569 | epot = -5.48765510171122e-12 | etot = 10937.4995110569
824  ekin = 10937.4995110569 | epot = -5.48765510171122e-12 | etot = 10937.4995110569
825  ekin = 10937.4995110569 | epot = -5.48765510171123e-12 | etot = 10937.4995110569
826  ekin = 10937.4995110569 | epot = -5.48765510171123e-12 | etot = 10937.4995110569
827  ekin = 10937.4995110569 | epot = -5.48765510171123e-12 | etot = 10937.4995110569
828  ekin = 10937.4995110569 | epot = -5.48765510171124e-12 | etot = 10937.4995110569
829  ekin = 10937.4995110569 | epot = -5.48765510171124e-12 | etot = 10937.4995110569
830  ekin = 10937.4995110569 | epot = -5.48765510171124e-12 | etot = 10937.4995110569
831  ekin = 10937.4995110569 | epot = -5.48765510171124e-12 | etot = 10937.4995110569
832  ekin = 10937.4995110569 | epot = -5.48765510171125e-12 | etot = 10937.4995110569
833  ekin = 10937.4995110569 | epot = -5.48765510171125e-12 | etot = 10937.4995110569
834  ekin = 10937.4995110569 | epot = -5.48765510171125e-12 | etot = 10937.4995110569
835  ekin = 10937.4995110569 | epot = -5.48765510171126e-12 | etot = 10937.4995110569
836  ekin = 10937.4995110569 | epot = -5.48765510171126e-12 | etot = 10937.4995110569
837  ekin = 10937.4995110569 | epot = -5.48765510171126e-12 | etot = 10937.4995110569
838  ekin = 10937.4995110569 | epot = -5.48765510171127e-12 | etot = 10937.4995110569
839  ekin = 10937.4995110569 | epot = -5.48765510171127e-12 | etot = 10937.4995110569
840  ekin = 10937.4995110569 | epot = -5.48765510171127e-12 | etot = 10937.4995110569
841  ekin = 10937.4995110569 | epot = -5.48765510171127e-12 | etot = 10937.4995110569
842  ekin = 10937.4995110569 | epot = -5.48765510171128e-12 | etot = 10937.4995110569
843  ekin = 10937.4995110569 | epot = -5.48765510171128e-12 | etot = 10937.4995110569
844  ekin = 10937.4995110569 | epot = -5.48765510171128e-12 | etot = 10937.4995110569
845  ekin = 10937.4995110569 | epot = -5.48765510171129e-12 | etot = 10937.4995110569
846  ekin = 10937.4995110569 | epot = -5.48765510171129e-12 | etot = 10937.4995110569
847  ekin = 10937.4995110569 | epot = -5.48765510171129e-12 | etot = 10937.4995110569
848  ekin = 10937.4995110569 | epot = -5.48765510171129e-12 | etot = 10937.4995110569
849  ekin = 10937.4995110569 | epot = -5.48765510171129e-12 | etot = 10937.4995110569
850  ekin = 10937.4995110569 | epot = -5.48765510171129e-12 | etot = 10937.4995110569
851  ekin = 10937.4995110569 | epot = -5.48765510171129e-12 | etot = 10937.4995110569
852  ekin = 10937.4995110569 | epot = -5.48765510171129e-12 | etot = 10937.4995110569
853  ekin = 10937.4995110569 | epot = -5.48765510171129e-12 | etot = 10937.4995110569
854  ekin = 10937.4995110569 | epot = -5.48765510171129e-12 | etot = 10937.4995110569
855  ekin = 10937.4995110569 | epot = -5.48765510171129e-12 | etot = 10937.4995110569
856  ekin = 10937.4995110569 | epot = -5.48765510171129e-12 | etot = 10937.4995110569
857  ekin = 10937.4995110569 | epot = -5.48765510171129e-12 | etot = 10937.4995110569
858  ekin = 10937.4995110569 | epot = -5.48765510171129e-12 | etot = 10937.4995110569
859  ekin = 10937.4995110569 | epot = -5.48765510171129e-12 | etot = 10937.4995110569
860  ekin = 10937.4995110569 | epot = -5.48765510171129e-12 | etot = 10937.4995110569
861  ekin = 10937.4995110569 | epot = -5.48765510171129e-12 | etot = 10937.4995110569
862  ekin = 10937.4995110569 | epot = -5.48765510171129e-12 | etot = 10937.4995110569
863  ekin = 10937.4995110569 | epot = -5.48765510171129e-12 | etot = 10937.4995110569
864  ekin = 10937.4995110569 | epot = -5.48765510171129e-12 | etot = 10937.4995110569
865  ekin = 10937.4995110569 | epot = -5.48765510171129e-12 | etot = 10937.4995110569
866  ekin = 10937.4995110569 | epot = -5.48765510171129e-12 | etot = 10937.4995110569
867  ekin = 10937.4995110569 | epot = -5.48765510171129e-12 | etot = 10937.4995110569
868  ekin = 10937.4995110569 | epot = -5.48765510171129e-12 | etot = 10937.4995110569
869  ekin = 10937.4995110569 | epot = -5.48765510171129e-12 | etot = 10937.4995110569
870  ekin = 10937.4995110569 | epot = -5.48765510171129e-12 | etot = 10937.4995110569
871  ekin = 10937.4995110569 | epot = -5.48765510171129e-12 | etot = 10937.4995110569
872  ekin = 10937.4995110569 | epot = -5.48765510171129e-12 | etot = 10937.4995110569
873  ekin = 10937.4995110569 | epot = -5.48765510171129e-12 | etot = 10937.4995110569
874  ekin = 10937.4995110569 | epot = -5.48765510171129e-12 | etot = 10937.4995110569
875  ekin = 10937.4995110569 | epot = -5.48765510171129e-12 | etot = 10937.4995110569
876  ekin = 10937.4995110569 | epot = -5.48765510171129e-12 | etot = 10937.4995110569
877  ekin = 10937.4995110569 | epot = -5.48765510171129e-12 | etot = 10937.4995110569
878  ekin = 10937.4995110569 | epot = -5.48765510171129e-12 | etot = 10937.4995110569
879  ekin = 10937.4995110569 | epot = -5.48765510171129e-12 | etot = 10937.4995110569
[...]
9787  ekin = 10937.4995110569 | epot = -5.48765510193785e-12 | etot = 10937.4995110569
9788  ekin = 10937.4995110569 | epot = -5.4876551019379e-12 | etot = 10937.4995110569
9789  ekin = 10937.4995110569 | epot = -5.48765510193795e-12 | etot = 10937.4995110569
9790  ekin = 10937.4995110569 | epot = -5.487655101938e-12 | etot = 10937.4995110569
9791  ekin = 10937.4995110569 | epot = -5.48765510193806e-12 | etot = 10937.4995110569
9792  ekin = 10937.4995110569 | epot = -5.48765510193811e-12 | etot = 10937.4995110569
9793  ekin = 10937.4995110569 | epot = -5.48765510193816e-12 | etot = 10937.4995110569
9794  ekin = 10937.4995110569 | epot = -5.48765510193821e-12 | etot = 10937.4995110569
9795  ekin = 10937.4995110569 | epot = -5.48765510193827e-12 | etot = 10937.4995110569
9796  ekin = 10937.4995110569 | epot = -5.48765510193832e-12 | etot = 10937.4995110569
9797  ekin = 10937.4995110569 | epot = -5.48765510193836e-12 | etot = 10937.4995110569
9798  ekin = 10937.4995110569 | epot = -5.48765510193842e-12 | etot = 10937.4995110569
9799  ekin = 10937.4995110569 | epot = -5.48765510193847e-12 | etot = 10937.4995110569
9800  ekin = 10937.4995110569 | epot = -5.48765510193852e-12 | etot = 10937.4995110569
9801  ekin = 10937.4995110569 | epot = -5.48765510193858e-12 | etot = 10937.4995110569
9802  ekin = 10937.4995110569 | epot = -5.48765510193863e-12 | etot = 10937.4995110569
9803  ekin = 10937.4995110569 | epot = -5.48765510193868e-12 | etot = 10937.4995110569
9804  ekin = 10937.4995110569 | epot = -5.48765510193873e-12 | etot = 10937.4995110569
9805  ekin = 10937.4995110569 | epot = -5.48765510193878e-12 | etot = 10937.4995110569
9806  ekin = 10937.4995110569 | epot = -5.48765510193883e-12 | etot = 10937.4995110569
9807  ekin = 10937.4995110569 | epot = -5.48765510193888e-12 | etot = 10937.4995110569
9808  ekin = 10937.4995110569 | epot = -5.48765510193894e-12 | etot = 10937.4995110569
9809  ekin = 10937.4995110569 | epot = -5.48765510193899e-12 | etot = 10937.4995110569
9810  ekin = 10937.4995110569 | epot = -5.48765510193904e-12 | etot = 10937.4995110569
9811  ekin = 10937.4995110569 | epot = -5.48765510193909e-12 | etot = 10937.4995110569
9812  ekin = 10937.4995110569 | epot = -5.48765510193914e-12 | etot = 10937.4995110569
9813  ekin = 10937.4995110569 | epot = -5.4876551019392e-12 | etot = 10937.4995110569
9814  ekin = 10937.4995110569 | epot = -5.48765510193924e-12 | etot = 10937.4995110569
9815  ekin = 10937.4995110569 | epot = -5.4876551019393e-12 | etot = 10937.4995110569
9816  ekin = 10937.4995110569 | epot = -5.48765510193935e-12 | etot = 10937.4995110569
9817  ekin = 10937.4995110569 | epot = -5.4876551019394e-12 | etot = 10937.4995110569
9818  ekin = 10937.4995110569 | epot = -5.48765510193945e-12 | etot = 10937.4995110569
9819  ekin = 10937.4995110569 | epot = -5.4876551019395e-12 | etot = 10937.4995110569
9820  ekin = 10937.4995110569 | epot = -5.48765510193956e-12 | etot = 10937.4995110569
9821  ekin = 10937.4995110569 | epot = -5.48765510193961e-12 | etot = 10937.4995110569
9822  ekin = 10937.4995110569 | epot = -5.48765510193966e-12 | etot = 10937.4995110569
9823  ekin = 10937.4995110569 | epot = -5.48765510193971e-12 | etot = 10937.4995110569
9824  ekin = 10937.4995110569 | epot = -5.48765510193976e-12 | etot = 10937.4995110569
9825  ekin = 10937.4995110569 | epot = -5.48765510193982e-12 | etot = 10937.4995110569
9826  ekin = 10937.4995110569 | epot = -5.48765510193986e-12 | etot = 10937.4995110569
9827  ekin = 10937.4995110569 | epot = -5.48765510193992e-12 | etot = 10937.4995110569
9828  ekin = 10937.4995110569 | epot = -5.48765510193997e-12 | etot = 10937.4995110569
9829  ekin = 10937.4995110569 | epot = -5.48765510194002e-12 | etot = 10937.4995110569
9830  ekin = 10937.4995110569 | epot = -5.48765510194007e-12 | etot = 10937.4995110569
9831  ekin = 10937.4995110569 | epot = -5.48765510194013e-12 | etot = 10937.4995110569
9832  ekin = 10937.4995110569 | epot = -5.48765510194018e-12 | etot = 10937.4995110569
9833  ekin = 10937.4995110569 | epot = -5.48765510194023e-12 | etot = 10937.4995110569
9834  ekin = 10937.4995110569 | epot = -5.48765510194028e-12 | etot = 10937.4995110569
9835  ekin = 10937.4995110569 | epot = -5.48765510194033e-12 | etot = 10937.4995110569
9836  ekin = 10937.4995110569 | epot = -5.48765510194039e-12 | etot = 10937.4995110569
9837  ekin = 10937.4995110569 | epot = -5.48765510194044e-12 | etot = 10937.4995110569
9838  ekin = 10937.4995110569 | epot = -5.48765510194049e-12 | etot = 10937.4995110569
9839  ekin = 10937.4995110569 | epot = -5.48765510194054e-12 | etot = 10937.4995110569
9840  ekin = 10937.4995110569 | epot = -5.48765510194059e-12 | etot = 10937.4995110569
9841  ekin = 10937.4995110569 | epot = -5.48765510194064e-12 | etot = 10937.4995110569
9842  ekin = 10937.4995110569 | epot = -5.4876551019407e-12 | etot = 10937.4995110569
9843  ekin = 10937.4995110569 | epot = -5.48765510194075e-12 | etot = 10937.4995110569
9844  ekin = 10937.4995110569 | epot = -5.4876551019408e-12 | etot = 10937.4995110569
9845  ekin = 10937.4995110569 | epot = -5.48765510194085e-12 | etot = 10937.4995110569
9846  ekin = 10937.4995110569 | epot = -5.4876551019409e-12 | etot = 10937.4995110569
9847  ekin = 10937.4995110569 | epot = -5.48765510194095e-12 | etot = 10937.4995110569
9848  ekin = 10937.4995110569 | epot = -5.487655101941e-12 | etot = 10937.4995110569
9849  ekin = 10937.4995110569 | epot = -5.48765510194104e-12 | etot = 10937.4995110569
9850  ekin = 10937.4995110569 | epot = -5.48765510194109e-12 | etot = 10937.4995110569
9851  ekin = 10937.4995110569 | epot = -5.48765510194114e-12 | etot = 10937.4995110569
9852  ekin = 10937.4995110569 | epot = -5.48765510194119e-12 | etot = 10937.4995110569
9853  ekin = 10937.4995110569 | epot = -5.48765510194124e-12 | etot = 10937.4995110569
9854  ekin = 10937.4995110569 | epot = -5.48765510194129e-12 | etot = 10937.4995110569
9855  ekin = 10937.4995110569 | epot = -5.48765510194134e-12 | etot = 10937.4995110569
9856  ekin = 10937.4995110569 | epot = -5.48765510194138e-12 | etot = 10937.4995110569
9857  ekin = 10937.4995110569 | epot = -5.48765510194143e-12 | etot = 10937.4995110569
9858  ekin = 10937.4995110569 | epot = -5.48765510194148e-12 | etot = 10937.4995110569
9859  ekin = 10937.4995110569 | epot = -5.48765510194153e-12 | etot = 10937.4995110569
9860  ekin = 10937.4995110569 | epot = -5.48765510194158e-12 | etot = 10937.4995110569
9861  ekin = 10937.4995110569 | epot = -5.48765510194163e-12 | etot = 10937.4995110569
9862  ekin = 10937.4995110569 | epot = -5.48765510194167e-12 | etot = 10937.4995110569
9863  ekin = 10937.4995110569 | epot = -5.48765510194173e-12 | etot = 10937.4995110569
9864  ekin = 10937.4995110569 | epot = -5.48765510194178e-12 | etot = 10937.4995110569
9865  ekin = 10937.4995110569 | epot = -5.48765510194182e-12 | etot = 10937.4995110569
9866  ekin = 10937.4995110569 | epot = -5.48765510194187e-12 | etot = 10937.4995110569
9867  ekin = 10937.4995110569 | epot = -5.48765510194192e-12 | etot = 10937.4995110569
9868  ekin = 10937.4995110569 | epot = -5.48765510194197e-12 | etot = 10937.4995110569
9869  ekin = 10937.4995110569 | epot = -5.48765510194202e-12 | etot = 10937.4995110569
9870  ekin = 10937.4995110569 | epot = -5.48765510194207e-12 | etot = 10937.4995110569
9871  ekin = 10937.4995110569 | epot = -5.48765510194212e-12 | etot = 10937.4995110569
9872  ekin = 10937.4995110569 | epot = -5.48765510194217e-12 | etot = 10937.4995110569
9873  ekin = 10937.4995110569 | epot = -5.48765510194221e-12 | etot = 10937.4995110569
9874  ekin = 10937.4995110569 | epot = -5.48765510194226e-12 | etot = 10937.4995110569
9875  ekin = 10937.4995110569 | epot = -5.48765510194231e-12 | etot = 10937.4995110569
9876  ekin = 10937.4995110569 | epot = -5.48765510194236e-12 | etot = 10937.4995110569
9877  ekin = 10937.4995110569 | epot = -5.48765510194241e-12 | etot = 10937.4995110569
9878  ekin = 10937.4995110569 | epot = -5.48765510194246e-12 | etot = 10937.4995110569
9879  ekin = 10937.4995110569 | epot = -5.4876551019425e-12 | etot = 10937.4995110569
9880  ekin = 10937.4995110569 | epot = -5.48765510194255e-12 | etot = 10937.4995110569
9881  ekin = 10937.4995110569 | epot = -5.4876551019426e-12 | etot = 10937.4995110569
9882  ekin = 10937.4995110569 | epot = -5.48765510194265e-12 | etot = 10937.4995110569
9883  ekin = 10937.4995110569 | epot = -5.4876551019427e-12 | etot = 10937.4995110569
9884  ekin = 10937.4995110569 | epot = -5.48765510194275e-12 | etot = 10937.4995110569
9885  ekin = 10937.4995110569 | epot = -5.4876551019428e-12 | etot = 10937.4995110569
9886  ekin = 10937.4995110569 | epot = -5.48765510194284e-12 | etot = 10937.4995110569
9887  ekin = 10937.4995110569 | epot = -5.4876551019429e-12 | etot = 10937.4995110569
9888  ekin = 10937.4995110569 | epot = -5.48765510194294e-12 | etot = 10937.4995110569
9889  ekin = 10937.4995110569 | epot = -5.48765510194299e-12 | etot = 10937.4995110569
9890  ekin = 10937.4995110569 | epot = -5.48765510194304e-12 | etot = 10937.4995110569
9891  ekin = 10937.4995110569 | epot = -5.48765510194309e-12 | etot = 10937.4995110569
9892  ekin = 10937.4995110569 | epot = -5.48765510194314e-12 | etot = 10937.4995110569
9893  ekin = 10937.4995110569 | epot = -5.48765510194319e-12 | etot = 10937.4995110569
9894  ekin = 10937.4995110569 | epot = -5.48765510194324e-12 | etot = 10937.4995110569
9895  ekin = 10937.4995110569 | epot = -5.48765510194328e-12 | etot = 10937.4995110569
9896  ekin = 10937.4995110569 | epot = -5.48765510194333e-12 | etot = 10937.4995110569
9897  ekin = 10937.4995110569 | epot = -5.48765510194338e-12 | etot = 10937.4995110569
9898  ekin = 10937.4995110569 | epot = -5.48765510194343e-12 | etot = 10937.4995110569
9899  ekin = 10937.4995110569 | epot = -5.48765510194348e-12 | etot = 10937.4995110569
9900  ekin = 10937.4995110569 | epot = -5.48765510194353e-12 | etot = 10937.4995110569
9901  ekin = 10937.4995110569 | epot = -5.48765510194357e-12 | etot = 10937.4995110569
9902  ekin = 10937.4995110569 | epot = -5.48765510194363e-12 | etot = 10937.4995110569
9903  ekin = 10937.4995110569 | epot = -5.48765510194367e-12 | etot = 10937.4995110569
9904  ekin = 10937.4995110569 | epot = -5.48765510194372e-12 | etot = 10937.4995110569
9905  ekin = 10937.4995110569 | epot = -5.48765510194377e-12 | etot = 10937.4995110569
9906  ekin = 10937.4995110569 | epot = -5.48765510194382e-12 | etot = 10937.4995110569
9907  ekin = 10937.4995110569 | epot = -5.48765510194387e-12 | etot = 10937.4995110569
9908  ekin = 10937.4995110569 | epot = -5.48765510194392e-12 | etot = 10937.4995110569
9909  ekin = 10937.4995110569 | epot = -5.48765510194396e-12 | etot = 10937.4995110569
9910  ekin = 10937.4995110569 | epot = -5.48765510194401e-12 | etot = 10937.4995110569
9911  ekin = 10937.4995110569 | epot = -5.48765510194406e-12 | etot = 10937.4995110569
9912  ekin = 10937.4995110569 | epot = -5.48765510194411e-12 | etot = 10937.4995110569
9913  ekin = 10937.4995110569 | epot = -5.48765510194416e-12 | etot = 10937.4995110569
9914  ekin = 10937.4995110569 | epot = -5.48765510194421e-12 | etot = 10937.4995110569
9915  ekin = 10937.4995110569 | epot = -5.48765510194426e-12 | etot = 10937.4995110569
9916  ekin = 10937.4995110569 | epot = -5.48765510194431e-12 | etot = 10937.4995110569
9917  ekin = 10937.4995110569 | epot = -5.48765510194436e-12 | etot = 10937.4995110569
9918  ekin = 10937.4995110569 | epot = -5.48765510194441e-12 | etot = 10937.4995110569
9919  ekin = 10937.4995110569 | epot = -5.48765510194446e-12 | etot = 10937.4995110569
9920  ekin = 10937.4995110569 | epot = -5.4876551019445e-12 | etot = 10937.4995110569
9921  ekin = 10937.4995110569 | epot = -5.48765510194455e-12 | etot = 10937.4995110569
9922  ekin = 10937.4995110569 | epot = -5.4876551019446e-12 | etot = 10937.4995110569
9923  ekin = 10937.4995110569 | epot = -5.48765510194465e-12 | etot = 10937.4995110569
9924  ekin = 10937.4995110569 | epot = -5.4876551019447e-12 | etot = 10937.4995110569
9925  ekin = 10937.4995110569 | epot = -5.48765510194475e-12 | etot = 10937.4995110569
9926  ekin = 10937.4995110569 | epot = -5.4876551019448e-12 | etot = 10937.4995110569
9927  ekin = 10937.4995110569 | epot = -5.48765510194484e-12 | etot = 10937.4995110569
9928  ekin = 10937.4995110569 | epot = -5.48765510194489e-12 | etot = 10937.4995110569
9929  ekin = 10937.4995110569 | epot = -5.48765510194494e-12 | etot = 10937.4995110569
9930  ekin = 10937.4995110569 | epot = -5.48765510194499e-12 | etot = 10937.4995110569
9931  ekin = 10937.4995110569 | epot = -5.48765510194504e-12 | etot = 10937.4995110569
9932  ekin = 10937.4995110569 | epot = -5.48765510194509e-12 | etot = 10937.4995110569
9933  ekin = 10937.4995110569 | epot = -5.48765510194514e-12 | etot = 10937.4995110569
9934  ekin = 10937.4995110569 | epot = -5.48765510194519e-12 | etot = 10937.4995110569
9935  ekin = 10937.4995110569 | epot = -5.48765510194523e-12 | etot = 10937.4995110569
9936  ekin = 10937.4995110569 | epot = -5.48765510194528e-12 | etot = 10937.4995110569
9937  ekin = 10937.4995110569 | epot = -5.48765510194533e-12 | etot = 10937.4995110569
9938  ekin = 10937.4995110569 | epot = -5.48765510194538e-12 | etot = 10937.4995110569
9939  ekin = 10937.4995110569 | epot = -5.48765510194543e-12 | etot = 10937.4995110569
9940  ekin = 10937.4995110569 | epot = -5.48765510194548e-12 | etot = 10937.4995110569
9941  ekin = 10937.4995110569 | epot = -5.48765510194553e-12 | etot = 10937.4995110569
9942  ekin = 10937.4995110569 | epot = -5.48765510194557e-12 | etot = 10937.4995110569
9943  ekin = 10937.4995110569 | epot = -5.48765510194562e-12 | etot = 10937.4995110569
9944  ekin = 10937.4995110569 | epot = -5.48765510194567e-12 | etot = 10937.4995110569
9945  ekin = 10937.4995110569 | epot = -5.48765510194572e-12 | etot = 10937.4995110569
9946  ekin = 10937.4995110569 | epot = -5.48765510194577e-12 | etot = 10937.4995110569
9947  ekin = 10937.4995110569 | epot = -5.48765510194582e-12 | etot = 10937.4995110569
9948  ekin = 10937.4995110569 | epot = -5.48765510194586e-12 | etot = 10937.4995110569
9949  ekin = 10937.4995110569 | epot = -5.48765510194592e-12 | etot = 10937.4995110569
9950  ekin = 10937.4995110569 | epot = -5.48765510194596e-12 | etot = 10937.4995110569
9951  ekin = 10937.4995110569 | epot = -5.48765510194601e-12 | etot = 10937.4995110569
9952  ekin = 10937.4995110569 | epot = -5.48765510194606e-12 | etot = 10937.4995110569
9953  ekin = 10937.4995110569 | epot = -5.48765510194611e-12 | etot = 10937.4995110569
9954  ekin = 10937.4995110569 | epot = -5.48765510194616e-12 | etot = 10937.4995110569
9955  ekin = 10937.4995110569 | epot = -5.48765510194621e-12 | etot = 10937.4995110569
9956  ekin = 10937.4995110569 | epot = -5.48765510194626e-12 | etot = 10937.4995110569
9957  ekin = 10937.4995110569 | epot = -5.4876551019463e-12 | etot = 10937.4995110569
9958  ekin = 10937.4995110569 | epot = -5.48765510194635e-12 | etot = 10937.4995110569
9959  ekin = 10937.4995110569 | epot = -5.4876551019464e-12 | etot = 10937.4995110569
9960  ekin = 10937.4995110569 | epot = -5.48765510194645e-12 | etot = 10937.4995110569
9961  ekin = 10937.4995110569 | epot = -5.4876551019465e-12 | etot = 10937.4995110569
9962  ekin = 10937.4995110569 | epot = -5.48765510194655e-12 | etot = 10937.4995110569
9963  ekin = 10937.4995110569 | epot = -5.4876551019466e-12 | etot = 10937.4995110569
9964  ekin = 10937.4995110569 | epot = -5.48765510194665e-12 | etot = 10937.4995110569
9965  ekin = 10937.4995110569 | epot = -5.48765510194669e-12 | etot = 10937.4995110569
9966  ekin = 10937.4995110569 | epot = -5.48765510194675e-12 | etot = 10937.4995110569
9967  ekin = 10937.4995110569 | epot = -5.48765510194679e-12 | etot = 10937.4995110569
9968  ekin = 10937.4995110569 | epot = -5.48765510194684e-12 | etot = 10937.4995110569
9969  ekin = 10937.4995110569 | epot = -5.48765510194689e-12 | etot = 10937.4995110569
9970  ekin = 10937.4995110569 | epot = -5.48765510194694e-12 | etot = 10937.4995110569
9971  ekin = 10937.4995110569 | epot = -5.48765510194699e-12 | etot = 10937.4995110569
9972  ekin = 10937.4995110569 | epot = -5.48765510194703e-12 | etot = 10937.4995110569
9973  ekin = 10937.4995110569 | epot = -5.48765510194708e-12 | etot = 10937.4995110569
9974  ekin = 10937.4995110569 | epot = -5.48765510194712e-12 | etot = 10937.4995110569
9975  ekin = 10937.4995110569 | epot = -5.48765510194717e-12 | etot = 10937.4995110569
9976  ekin = 10937.4995110569 | epot = -5.48765510194721e-12 | etot = 10937.4995110569
9977  ekin = 10937.4995110569 | epot = -5.48765510194725e-12 | etot = 10937.4995110569
9978  ekin = 10937.4995110569 | epot = -5.4876551019473e-12 | etot = 10937.4995110569
9979  ekin = 10937.4995110569 | epot = -5.48765510194734e-12 | etot = 10937.4995110569
9980  ekin = 10937.4995110569 | epot = -5.48765510194738e-12 | etot = 10937.4995110569
9981  ekin = 10937.4995110569 | epot = -5.48765510194743e-12 | etot = 10937.4995110569
9982  ekin = 10937.4995110569 | epot = -5.48765510194747e-12 | etot = 10937.4995110569
9983  ekin = 10937.4995110569 | epot = -5.48765510194752e-12 | etot = 10937.4995110569
9984  ekin = 10937.4995110569 | epot = -5.48765510194756e-12 | etot = 10937.4995110569
9985  ekin = 10937.4995110569 | epot = -5.48765510194761e-12 | etot = 10937.4995110569
9986  ekin = 10937.4995110569 | epot = -5.48765510194765e-12 | etot = 10937.4995110569
9987  ekin = 10937.4995110569 | epot = -5.4876551019477e-12 | etot = 10937.4995110569
9988  ekin = 10937.4995110569 | epot = -5.48765510194775e-12 | etot = 10937.4995110569
9989  ekin = 10937.4995110569 | epot = -5.48765510194779e-12 | etot = 10937.4995110569
9990  ekin = 10937.4995110569 | epot = -5.48765510194783e-12 | etot = 10937.4995110569
9991  ekin = 10937.4995110569 | epot = -5.48765510194788e-12 | etot = 10937.4995110569
9992  ekin = 10937.4995110569 | epot = -5.48765510194792e-12 | etot = 10937.4995110569
9993  ekin = 10937.4995110569 | epot = -5.48765510194796e-12 | etot = 10937.4995110569
9994  ekin = 10937.4995110569 | epot = -5.48765510194801e-12 | etot = 10937.4995110569
9995  ekin = 10937.4995110569 | epot = -5.48765510194805e-12 | etot = 10937.4995110569
9996  ekin = 10937.4995110569 | epot = -5.4876551019481e-12 | etot = 10937.4995110569
9997  ekin = 10937.4995110569 | epot = -5.48765510194814e-12 | etot = 10937.4995110569
9998  ekin = 10937.4995110569 | epot = -5.48765510194819e-12 | etot = 10937.4995110569
9999  ekin = 10937.4995110569 | epot = -5.48765510194823e-12 | etot = 10937.4995110569
10000  ekin = 10937.4995110569 | epot = -5.48765510194827e-12 | etot = 10937.4995110569
     10000   1215.2777     -7.8395073e-13  0              1562.4999      36.458332    
Loop time of 0.410797 on 2 procs for 10000 steps with 7 atoms

Performance: 2103230.153 tau/day, 24342.942 timesteps/s, 170.401 katom-step/s
88.5% CPU use with 2 MPI tasks x 1 OpenMP threads

MPI task timing breakdown:
Section |  min time  |  avg time  |  max time  |%varavg| %total
---------------------------------------------------------------
Pair    | 0.026045   | 0.026669   | 0.027293   |   0.4 |  6.49
Neigh   | 0.00099031 | 0.00099266 | 0.00099501 |   0.0 |  0.24
Comm    | 0.13873    | 0.13898    | 0.13922    |   0.1 | 33.83
Output  | 0.09937    | 0.10619    | 0.11302    |   2.1 | 25.85
Modify  | 0.073965   | 0.086301   | 0.098637   |   4.2 | 21.01
Other   |            | 0.05166    |            |       | 12.58

Nlocal:            3.5 ave           5 max           2 min
Histogram: 1 0 0 0 0 0 0 0 0 1
Nghost:           30.5 ave          34 max          27 min
Histogram: 1 0 0 0 0 0 0 0 0 1
Neighs:            5.5 ave          10 max           1 min
Histogram: 1 0 0 0 0 0 0 0 0 1

Total # of neighbors = 11
Ave neighs/atom = 1.5714286
Neighbor list builds = 133
Dangerous builds = 0

write_data data_out.* nocoeff
System init for write_data ...
Generated 0 of 0 mixed pair_coeff terms from geometric mixing rule

Total wall time: 0:00:00
