LAMMPS (7 Feb 2024 - Development - patch_21Nov2023-1048-gbdbdd96ee4-modified)
KOKKOS mode with Kokkos version 4.2.0 is enabled (../kokkos.cpp:72)
package kokkos
package kokkos comm device
###
# Reference paper:
# K. Kremer and G. S. Grest
# Dynamics of entangled linear polymer melts: A molecular-dynamics simulation
# J Chem Phys 92, 5057 (1990)
###

###
# Box and units  (use LJ units and periodic boundaries)
###

units lj

atom_style ellipsoid

boundary        p p p

###
# Pair interactions require lists of neighbours to be calculated
###
neighbor 1.5 bin
neigh_modify every 1 delay 0 check yes

### Generate RESTART file, SPECIAL format, not a .txt file ###
### Useful if simulation crashes ###
#restart 10000 polymer.restart
#############################

#processors 2 1 1

### READ "REstart" data file ###
#read_restart polymer.restart.10000
######################

read_data lmp_data
Reading data file ...
  orthogonal box = (3 -4 -7) to (8 0 3)
  1 by 1 by 2 MPI processor grid
  reading atoms ...
  10 atoms
  reading velocities ...
  10 velocities
  10 ellipsoids
  read_data CPU = 0.002 seconds

### reset timestep ###
reset_timestep 0
######################

###
# Define groups (atom type 1 is group 'all')
###
group all type 1
10 atoms in group all
group polymer type 1
10 atoms in group polymer

###
# Dump configs - "simple dumpings"
###

###
# Dump configs + box coords
###
compute q all property/atom quatw quati quatj quatk
compute diameter all property/atom shapex shapey shapez
dump 1 all custom 1 dump.polymer id type x y z c_q[1] c_q[2] c_q[3] c_q[4] c_diameter[1] c_diameter[2] c_diameter[3]
dump_modify 1 colname c_q[1] quatw colname c_q[2] quati colname c_q[3] quatj colname c_q[4] quatk
dump_modify 1 colname c_diameter[1] shapex colname c_diameter[2] shapey colname c_diameter[3] shapez
#dump   1   all   custom   100000   polymer.dump.*  id x y z  ix iy iz
#dump_modify   1   format line "%d %.5f %.5f %.5f %d %d %d"
#dump   id all atom 1000 dump.polymer

###################################################################
# Stiffness term
#
# E = K * (theta-thera0)**2, K>0
#
#angle_style   harmonic
#angle_coeff   1 2.0 120.0
###################################################################

###################################################################
# Pair interaction between non-bonded atoms
#
#  Lennard-Jones 12-6 potential with cutoff:
#  potential E=4epsilon[ (sigma/r)^12 - (sigma/r)^6]  for r<r_cut
#
#  1.12246152962189 = 2^(1/6) is the minimum of the potential

pair_style      lj/cut 1.12246152962189

#
#  pair_coeff for lj/cut, specify 4:
#    * atom type interacting with
#    * atom type
#    * epsilon (energy units)
#    * sigma (distance units)
#

pair_coeff      1 1 1.0 1.5

#
#  pair_modify shift yes adds a constant to the potential such
#  that E(r_cut)=0. Forces remains unchanged.
#

pair_modify     shift yes

###################################################

#comm_modify cutoff 6
#comm_style tiled
#balance 1.2 rcb

###
# Set up fixes
###

fix 1 all   nve   ###NVE ensemble
#fix 2 all   langevin   1.0 1.0   2.0   424242   ###Langevin integrator Tstart Tstop 1/friction rndseed

compute ekin all ke
compute epot all pe
variable ekin equal c_ekin
variable epot equal c_epot
variable etot equal c_ekin+c_epot

fix 5 all print 1 "$(step)  ekin = ${ekin} | epot = ${epot} | etot = ${etot}" screen yes

##### Sample thermodynamic info  (temperature, energy, pressure, etc.) #####
#thermo 10000
#thermo_style   custom   step  temp  epair  emol  press pxx pyy pzz  vol
############################################################################

###
# set timestep of integrator
###
timestep 0.001 #0.012

###
# run integration for a number of steps
###
run 10000
Generated 0 of 0 mixed pair_coeff terms from geometric mixing rule
Neighbor list info ...
  update: every = 1 steps, delay = 0 steps, check = yes
  max neighbors/atom: 2000, page size: 100000
  master list distance cutoff = 2.6224615
  ghost atom cutoff = 2.6224615
  binsize = 1.3112308, bins = 4 4 8
  1 neighbor lists, perpetual/occasional/extra = 1 0 0
  (1) pair lj/cut/kk, perpetual
      attributes: half, newton on, kokkos_device
      pair build: half/bin/newton/kk/device
      stencil: half/bin/3d
      bin: kk/device
0  ekin = 15624.9993015099 | epot = 1537.2582177201 | etot = 17162.25751923
Per MPI rank memory allocation (min/avg/max) = 5.174 | 5.174 | 5.174 Mbytes
   Step          Temp          E_pair         E_mol          TotEng         Press     
         0   1157.4074      153.72582      0              1716.2258      97.99119     
1  ekin = 15628.8907534465 | epot = 1533.35982938294 | etot = 17162.2505828295
2  ekin = 15640.4551477435 | epot = 1521.77511622198 | etot = 17162.2302639655
3  ekin = 15659.3698759981 | epot = 1502.82809727227 | etot = 17162.1979732704
4  ekin = 15685.1206440871 | epot = 1477.03522786343 | etot = 17162.1558719505
5  ekin = 15717.0336768922 | epot = 1445.07294704493 | etot = 17162.1066239371
6  ekin = 15754.3155897694 | epot = 1407.73752309628 | etot = 17162.0531128657
7  ekin = 15796.0968211285 | epot = 1365.90134713493 | etot = 17161.9981682634
8  ekin = 15841.4746227713 | epot = 1320.46971462996 | etot = 17161.9443374012
9  ekin = 15889.5522315773 | epot = 1272.34149383801 | etot = 17161.8937254153
10  ekin = 15939.4718063672 | epot = 1222.37610451441 | etot = 17161.8479108816
11  ekin = 15990.4397908814 | epot = 1171.36813993245 | etot = 17161.8079308138
12  ekin = 16041.7443690903 | epot = 1120.02995119473 | etot = 17161.7743202851
13  ekin = 16092.7654841129 | epot = 1068.98170397843 | etot = 17161.7471880913
14  ekin = 16142.9784377452 | epot = 1018.74787254161 | etot = 17161.7263102868
15  ekin = 16191.9523746313 | epot = 969.758851949834 | etot = 17161.7112265812
16  ekin = 16239.3450243418 | epot = 922.356304637625 | etot = 17161.7013289794
17  ekin = 16284.8949861531 | epot = 876.800950306314 | etot = 17161.6959364594
18  ekin = 16328.4126572481 | epot = 833.281695933878 | etot = 17161.694353182
19  ekin = 16369.7706785332 | epot = 791.925231867998 | etot = 17161.6959104012
20  ekin = 16408.8945425522 | epot = 752.805451329999 | etot = 17161.6999938822
21  ekin = 16445.7537999858 | epot = 715.952259444699 | etot = 17161.7060594305
22  ekin = 16480.3541276652 | epot = 681.359511645732 | etot = 17161.7136393109
23  ekin = 16512.7303856805 | epot = 648.991956453285 | etot = 17161.7223421338
24  ekin = 16542.9406920527 | epot = 618.791156335925 | etot = 17161.7318483886
25  ekin = 16571.0614755261 | epot = 590.680427818465 | etot = 17161.7419033446
26  ekin = 16597.1834241491 | epot = 564.568884446226 | etot = 17161.7523085953
27  ekin = 16615.8345296494 | epot = 542.077612747133 | etot = 17157.9121423965
28  ekin = 16627.6307174659 | epot = 530.28352877232 | etot = 17157.9142462382
29  ekin = 16638.7773393552 | epot = 519.139570489148 | etot = 17157.9169098443
30  ekin = 16649.3070758837 | epot = 508.613015548279 | etot = 17157.9200914319
31  ekin = 16659.2614463768 | epot = 498.662301616693 | etot = 17157.9237479935
32  ekin = 16668.690097962 | epot = 489.237736117767 | etot = 17157.9278340798
33  ekin = 16677.6500465868 | epot = 480.282253970917 | etot = 17157.9323005577
34  ekin = 16683.2789671055 | epot = 477.695673696471 | etot = 17160.974640802
35  ekin = 16685.940523308 | epot = 475.037663670208 | etot = 17160.9781869782
36  ekin = 16688.8383523665 | epot = 472.143524528619 | etot = 17160.9818768951
37  ekin = 16692.0308839173 | epot = 468.954749421455 | etot = 17160.9856333387
38  ekin = 16695.577325077 | epot = 465.412047634336 | etot = 17160.9893727114
39  ekin = 16699.5363613347 | epot = 461.456645876329 | etot = 17160.993007211
40  ekin = 16703.9647979583 | epot = 457.031649491275 | etot = 17160.9964474496
41  ekin = 16708.9161816081 | epot = 452.083423805074 | etot = 17160.9996054132
42  ekin = 16714.4394467289 | epot = 446.562950898177 | etot = 17161.0023976271
43  ekin = 16720.5776341604 | epot = 440.427114199217 | etot = 17161.0047483596
44  ekin = 16727.3667297992 | epot = 433.639862877704 | etot = 17161.0065926769
45  ekin = 16734.8346688074 | epot = 426.173210350929 | etot = 17161.0078791583
46  ekin = 16743.0005457131 | epot = 418.008026377532 | etot = 17161.0085720906
47  ekin = 16751.8740629794 | epot = 409.134590011357 | etot = 17161.0086529908
48  ekin = 16761.4552406317 | epot = 399.552880715651 | etot = 17161.0081213473
49  ekin = 16771.7343979681 | epot = 389.2725965569 | etot = 17161.006994525
50  ekin = 16782.6924060198 | epot = 378.312900818912 | etot = 17161.0053068387
51  ekin = 16791.5108568639 | epot = 368.221374084361 | etot = 17159.7322309483
52  ekin = 16798.0878972411 | epot = 361.64180632474 | etot = 17159.7297035658
53  ekin = 16805.0589164658 | epot = 354.668018023862 | etot = 17159.7269344896
54  ekin = 16812.3836015001 | epot = 347.340414609356 | etot = 17159.7240161094
55  ekin = 16820.0189831335 | epot = 339.70206075122 | etot = 17159.7210438847
56  ekin = 16827.9208647786 | epot = 331.797247986935 | etot = 17159.7181127655
57  ekin = 16836.0452470342 | epot = 323.670066770785 | etot = 17159.715313805
58  ekin = 16844.349697355 | epot = 315.363033750198 | etot = 17159.7127311052
59  ekin = 16851.5778506983 | epot = 309.338302221319 | etot = 17160.9161529196
60  ekin = 16857.8439258386 | epot = 303.069474053326 | etot = 17160.913399892
61  ekin = 16864.392871854 | epot = 296.5181976522 | etot = 17160.9110695062
62  ekin = 16871.1872464743 | epot = 289.721950577209 | etot = 17160.9091970515
63  ekin = 16876.6961124648 | epot = 285.557068734302 | etot = 17162.2531811991
64  ekin = 16880.8687137785 | epot = 281.384027669944 | etot = 17162.2527414485
65  ekin = 16885.2151905035 | epot = 277.037549865505 | etot = 17162.252740369
66  ekin = 16889.7330004836 | epot = 272.520154663976 | etot = 17162.2531551476
67  ekin = 16894.4255384117 | epot = 267.82841276282 | etot = 17162.2539511745
68  ekin = 16899.3016336046 | epot = 262.953449850398 | etot = 17162.255083455
69  ekin = 16904.374891517 | epot = 257.88160672693 | etot = 17162.256498244
70  ekin = 16909.6629033375 | epot = 252.595231523162 | etot = 17162.2581348607
71  ekin = 16915.1863507656 | epot = 247.073576878088 | etot = 17162.2599276437
72  ekin = 16920.9680351755 | epot = 241.293772825776 | etot = 17162.2618080013
73  ekin = 16927.0318618088 | epot = 235.231844700965 | etot = 17162.2637065098
74  ekin = 16933.4018103465 | epot = 228.863744660328 | etot = 17162.2655550068
75  ekin = 16940.1009231166 | epot = 222.166365504608 | etot = 17162.2672886212
76  ekin = 16947.1503412269 | epot = 215.118506449893 | etot = 17162.2688476767
77  ekin = 16954.5684170157 | epot = 207.70176238971 | etot = 17162.2701794054
78  ekin = 16962.3699283748 | epot = 199.901311032797 | etot = 17162.2712394076
79  ekin = 16970.5654167413 | epot = 191.706576061678 | etot = 17162.271992803
80  ekin = 16979.1606659869 | epot = 183.11174904054 | etot = 17162.2724150274
81  ekin = 16988.1563341946 | epot = 174.116158049089 | etot = 17162.2724922437
82  ekin = 16994.8601246071 | epot = 169.404172317713 | etot = 17164.2642969248
83  ekin = 16999.4201993439 | epot = 164.842277253419 | etot = 17164.2624765974
84  ekin = 17004.6477367862 | epot = 159.612591460533 | etot = 17164.2603282467
85  ekin = 17010.5079316941 | epot = 153.749957689108 | etot = 17164.2578893832
86  ekin = 17016.9612048348 | epot = 147.293998136579 | etot = 17164.2552029713
87  ekin = 17023.9638530651 | epot = 140.288462967833 | etot = 17164.2523160329
88  ekin = 17031.4687620066 | epot = 132.780516149719 | etot = 17164.2492781563
89  ekin = 17039.4261593468 | epot = 124.819980639284 | etot = 17164.2461399861
90  ekin = 17046.1869199665 | epot = 116.958106268785 | etot = 17163.1450262353
91  ekin = 17051.6715657586 | epot = 111.470797118783 | etot = 17163.1423628774
92  ekin = 17057.4545769857 | epot = 105.685123638337 | etot = 17163.139700624
93  ekin = 17063.4919197679 | epot = 99.6451605679339 | etot = 17163.1370803358
94  ekin = 17069.7399041939 | epot = 93.3946345370229 | etot = 17163.1345387309
95  ekin = 17076.1557565575 | epot = 86.9763512476369 | etot = 17163.1321078052
96  ekin = 17082.698123242 | epot = 80.4316912341579 | etot = 17163.1298144762
97  ekin = 17089.3275005617 | epot = 73.8001798757499 | etot = 17163.1276804375
98  ekin = 17096.0065879477 | epot = 67.11913425296 | etot = 17163.1257222007
99  ekin = 17102.7005646265 | epot = 60.4233866697068 | etot = 17163.1239512962
100  ekin = 17109.3772923107 | epot = 53.745082292404 | etot = 17163.1223746031
101  ekin = 17116.0074483358 | epot = 47.1135464378823 | etot = 17163.1209947737
102  ekin = 17120.5437075088 | epot = 42.0356492346469 | etot = 17162.5793567435
103  ekin = 17122.9687167383 | epot = 39.6102072876361 | etot = 17162.578924026
104  ekin = 17125.2438445249 | epot = 37.33490301283 | etot = 17162.5787475377
105  ekin = 17127.3630637673 | epot = 35.215754334049 | etot = 17162.5788181014
106  ekin = 17129.3240643782 | epot = 33.2550595226641 | etot = 17162.5791239008
107  ekin = 17131.1280900418 | epot = 31.4515607998936 | etot = 17162.5796508417
108  ekin = 17132.7797386702 | epot = 29.8006442075681 | etot = 17162.5803828778
109  ekin = 17131.5760212658 | epot = 29.9693153229258 | etot = 17161.5453365887
110  ekin = 17127.5964746017 | epot = 33.949884255311 | etot = 17161.546358857
111  ekin = 17123.6878498096 | epot = 37.8595785743555 | etot = 17161.5474283839
112  ekin = 17119.868202746 | epot = 41.6803338180705 | etot = 17161.5485365641
113  ekin = 17116.1560823363 | epot = 45.3935911627911 | etot = 17161.5496734991
114  ekin = 17112.5703753209 | epot = 48.9804527562665 | etot = 17161.5508280771
115  ekin = 17109.1301334289 | epot = 52.4218546647613 | etot = 17161.5519880937
116  ekin = 17105.8543848359 | epot = 55.6987555771222 | etot = 17161.553140413
117  ekin = 17102.7619323602 | epot = 58.792338809594 | etot = 17161.5542711698
118  ekin = 17099.8711414362 | epot = 61.6842245720597 | etot = 17161.5553660083
119  ekin = 17097.1997214385 | epot = 64.3566889154768 | etot = 17161.556410354
120  ekin = 17091.778029242 | epot = 67.5357410150816 | etot = 17159.3137702571
121  ekin = 17083.4051047971 | epot = 75.908021773712 | etot = 17159.3131265708
122  ekin = 17074.8870078281 | epot = 84.4254466066194 | etot = 17159.3124544347
123  ekin = 17066.2198955909 | epot = 93.0918719015081 | etot = 17159.3117674924
124  ekin = 17057.3999821625 | epot = 101.911100986357 | etot = 17159.3110831489
125  ekin = 17048.4238116857 | epot = 110.88661109736 | etot = 17159.3104227831
126  ekin = 17039.2885890948 | epot = 120.021222770991 | etot = 17159.3098118658
127  ekin = 17029.9925694519 | epot = 129.31671050457 | etot = 17159.3092799565
128  ekin = 17020.5355051623 | epot = 138.773355388209 | etot = 17159.3088605505
129  ekin = 17010.9191480614 | epot = 148.389442685576 | etot = 17159.308590747
130  ekin = 17001.1478006636 | epot = 158.160710043634 | etot = 17159.3085107073
131  ekin = 16991.2289077412 | epot = 168.079755135062 | etot = 17159.3086628763
132  ekin = 16981.1736758982 | epot = 178.135415046215 | etot = 17159.3090909445
133  ekin = 16970.997704986 | epot = 188.312133546914 | etot = 17159.3098385329
134  ekin = 16960.7216111998 | epot = 198.589336398966 | etot = 17159.3109475988
135  ekin = 16950.3716176641 | epot = 208.940838906764 | etot = 17159.3124565709
136  ekin = 16939.9800844934 | epot = 219.334313753462 | etot = 17159.3143982469
137  ekin = 16929.5859470025 | epot = 229.730850504505 | etot = 17159.316797507
138  ekin = 16919.2350282855 | epot = 240.084640641473 | etot = 17159.3196689269
139  ekin = 16908.9801911911 | epot = 250.342823211315 | etot = 17159.3230144024
140  ekin = 16898.881295213 | epot = 260.445525712906 | etot = 17159.326820926
141  ekin = 16889.004926402 | epot = 270.326132280911 | etot = 17159.3310586829
142  ekin = 16879.423873438 | epot = 279.911806211951 | etot = 17159.33567965
143  ekin = 16870.2163307124 | epot = 289.124286173617 | etot = 17159.340616886
144  ekin = 16861.4648197051 | epot = 297.880964986443 | etot = 17159.3457846915
145  ekin = 16853.2548329296 | epot = 306.096246856457 | etot = 17159.3510797861
146  ekin = 16845.6732197648 | epot = 313.683163831705 | etot = 17159.3563835965
147  ekin = 16838.8063498395 | epot = 320.55521584016 | etot = 17159.3615656796
148  ekin = 16832.7381061975 | epot = 326.628382013411 | etot = 17159.3664882109
149  ekin = 16827.5477759505 | epot = 331.823235422783 | etot = 17159.3710113733
150  ekin = 16823.3079190827 | epot = 336.067080297378 | etot = 17159.3749993801
151  ekin = 16820.0823050922 | epot = 339.296021688604 | etot = 17159.3783267808
152  ekin = 16817.9240109965 | epot = 341.456873639509 | etot = 17159.380884636
153  ekin = 16816.8737720278 | epot = 342.508814093054 | etot = 17159.3825861209
154  ekin = 16816.9586677357 | epot = 342.424703398873 | etot = 17159.3833711346
155  ekin = 16818.1912114458 | epot = 341.191998104372 | etot = 17159.3832095502
156  ekin = 16820.5688909919 | epot = 338.813211852109 | etot = 17159.382102844
157  ekin = 16824.0741847898 | epot = 335.305899180313 | etot = 17159.3800839702
158  ekin = 16828.6750515625 | epot = 330.702163932183 | etot = 17159.3772154947
159  ekin = 16834.3258664523 | epot = 325.047719695094 | etot = 17159.3735861474
160  ekin = 16840.9687529633 | epot = 318.400553110283 | etot = 17159.3693060736
161  ekin = 16848.5352409831 | epot = 310.829260181116 | etot = 17159.3645011643
162  ekin = 16856.9481673972 | epot = 302.411139495436 | etot = 17159.3593068926
163  ekin = 16866.1237282979 | epot = 293.230133795862 | etot = 17159.3538620937
164  ekin = 16875.9735906347 | epot = 283.374712455073 | etot = 17159.3483030898
165  ekin = 16886.4069758787 | epot = 272.9357826172 | etot = 17159.3427584959
166  ekin = 16897.3326379367 | epot = 262.004707016122 | etot = 17159.3373449528
167  ekin = 16908.6606708606 | epot = 250.671493069846 | etot = 17159.3321639304
168  ekin = 16920.3040974321 | epot = 239.023202220987 | etot = 17159.3272996531
169  ekin = 16932.1802060343 | epot = 227.142612071207 | etot = 17159.3228181055
170  ekin = 16944.211619104 | epot = 215.10714790956 | etot = 17159.3187670136
171  ekin = 16956.3270908717 | epot = 202.988085774594 | etot = 17159.3151766463
172  ekin = 16968.4620443256 | epot = 190.850016929815 | etot = 17159.3120612554
173  ekin = 16980.5588669928 | epot = 178.750553975124 | etot = 17159.3094209679
174  ekin = 16992.5669920614 | epot = 166.740251887303 | etot = 17159.3072439487
175  ekin = 17004.4427957018 | epot = 154.862712975098 | etot = 17159.3055086769
176  ekin = 17016.1493434246 | epot = 143.154842776307 | etot = 17159.3041862009
177  ekin = 17027.6560183317 | epot = 131.647223937793 | etot = 17159.3032422695
178  ekin = 17038.9380625876 | epot = 120.364576678699 | etot = 17159.3026392663
179  ekin = 17049.9760607869 | epot = 109.326277114279 | etot = 17159.3023379012
180  ekin = 17060.7553905197 | epot = 98.5469081158677 | etot = 17159.3022986355
181  ekin = 17071.2656616799 | epot = 88.0368211578762 | etot = 17159.3024828378
182  ekin = 17081.5001622055 | epot = 77.8026914749052 | etot = 17159.3028536804
183  ekin = 17091.4553241909 | epot = 67.8480526070884 | etot = 17159.3033767979
184  ekin = 17101.1302208358 | epot = 58.1737998974643 | etot = 17159.3040207333
185  ekin = 17110.5261015781 | epot = 48.7786556245374 | etot = 17159.3047572026
186  ekin = 17119.645970054 | epot = 39.6595911544728 | etot = 17159.3055612085
187  ekin = 17128.4942072671 | epot = 30.8122037645798 | etot = 17159.3064110316
188  ekin = 17133.9802520925 | epot = 23.0214231344442 | etot = 17157.0016752269
189  ekin = 17136.3029626622 | epot = 20.698019488674 | etot = 17157.0009821508
190  ekin = 17138.7406554146 | epot = 18.2596248213129 | etot = 17157.0002802359
191  ekin = 17141.282059752 | epot = 15.7175164034404 | etot = 17156.9995761555
192  ekin = 17143.9158202662 | epot = 13.0830559688286 | etot = 17156.998876235
193  ekin = 17146.6305928635 | epot = 10.3675935124593 | etot = 17156.998186376
194  ekin = 17149.4151348607 | epot = 7.58237713378311 | etot = 17156.9975119945
195  ekin = 17152.2583881228 | epot = 4.73846985128087 | etot = 17156.996857974
196  ekin = 17155.14955453 | epot = 1.84667410330275 | etot = 17156.9962286333
197  ekin = 17156.6186861637 | epot = 0 | etot = 17156.6186861637
198  ekin = 17156.6186861637 | epot = 0 | etot = 17156.6186861637
199  ekin = 17156.6186861637 | epot = 0 | etot = 17156.6186861637
200  ekin = 17156.6186861637 | epot = 0 | etot = 17156.6186861637
201  ekin = 17156.6186861637 | epot = 0 | etot = 17156.6186861637
202  ekin = 17156.6186861637 | epot = 0 | etot = 17156.6186861637
203  ekin = 17156.6186861637 | epot = 0 | etot = 17156.6186861637
204  ekin = 17156.6186861637 | epot = 0 | etot = 17156.6186861637
205  ekin = 17156.6186861637 | epot = 0 | etot = 17156.6186861637
206  ekin = 17156.6186861637 | epot = 0 | etot = 17156.6186861637
207  ekin = 17156.6186861637 | epot = 0 | etot = 17156.6186861637
208  ekin = 17156.6186861637 | epot = 0 | etot = 17156.6186861637
209  ekin = 17156.6186861637 | epot = 0 | etot = 17156.6186861637
210  ekin = 17156.6186861637 | epot = 0 | etot = 17156.6186861637
211  ekin = 17156.6186861637 | epot = 0 | etot = 17156.6186861637
212  ekin = 17156.6186861637 | epot = 0 | etot = 17156.6186861637
213  ekin = 17156.6186861637 | epot = 0 | etot = 17156.6186861637
214  ekin = 17156.6186861637 | epot = 0 | etot = 17156.6186861637
215  ekin = 17156.6186861637 | epot = 0 | etot = 17156.6186861637
216  ekin = 17156.6186861637 | epot = 0 | etot = 17156.6186861637
217  ekin = 17156.6186861637 | epot = 0 | etot = 17156.6186861637
218  ekin = 17156.6186861637 | epot = 0 | etot = 17156.6186861637
219  ekin = 17156.6186861637 | epot = 0 | etot = 17156.6186861637
220  ekin = 17156.6186861637 | epot = 0 | etot = 17156.6186861637
221  ekin = 17156.6186861637 | epot = 0 | etot = 17156.6186861637
222  ekin = 17156.6186861637 | epot = 0 | etot = 17156.6186861637
223  ekin = 17156.6186861637 | epot = 0 | etot = 17156.6186861637
224  ekin = 17156.6186861637 | epot = 0 | etot = 17156.6186861637
225  ekin = 17156.6186861637 | epot = 0 | etot = 17156.6186861637
226  ekin = 17156.6186861637 | epot = 0 | etot = 17156.6186861637
227  ekin = 17156.6186861637 | epot = 0 | etot = 17156.6186861637
228  ekin = 17156.6186861637 | epot = 0 | etot = 17156.6186861637
229  ekin = 17156.6186861637 | epot = 0 | etot = 17156.6186861637
230  ekin = 17156.6186861637 | epot = 0 | etot = 17156.6186861637
231  ekin = 17156.6186861637 | epot = 0 | etot = 17156.6186861637
232  ekin = 17156.6186861637 | epot = 0 | etot = 17156.6186861637
233  ekin = 17156.6186861637 | epot = 0 | etot = 17156.6186861637
234  ekin = 17156.6186861637 | epot = 0 | etot = 17156.6186861637
235  ekin = 17156.6186861637 | epot = 0 | etot = 17156.6186861637
236  ekin = 17156.6186861637 | epot = 0 | etot = 17156.6186861637
237  ekin = 17156.6186861637 | epot = 0 | etot = 17156.6186861637
238  ekin = 17156.6186861637 | epot = 0 | etot = 17156.6186861637
239  ekin = 17156.6186861637 | epot = 0 | etot = 17156.6186861637
240  ekin = 17156.6186861637 | epot = 0 | etot = 17156.6186861637
241  ekin = 17156.6186861637 | epot = 0 | etot = 17156.6186861637
242  ekin = 17156.6186861637 | epot = 0 | etot = 17156.6186861637
243  ekin = 17156.6186861637 | epot = 0 | etot = 17156.6186861637
244  ekin = 17156.6186861637 | epot = 0 | etot = 17156.6186861637
245  ekin = 17156.6186861637 | epot = 0 | etot = 17156.6186861637
246  ekin = 17156.6186861637 | epot = 0 | etot = 17156.6186861637
247  ekin = 17156.6186861637 | epot = 0 | etot = 17156.6186861637
248  ekin = 17156.6186861637 | epot = 0 | etot = 17156.6186861637
249  ekin = 17156.6186861637 | epot = 0 | etot = 17156.6186861637
250  ekin = 17156.6186861637 | epot = 0 | etot = 17156.6186861637
251  ekin = 17156.6186861637 | epot = 0 | etot = 17156.6186861637
252  ekin = 17156.6186861637 | epot = 0 | etot = 17156.6186861637
253  ekin = 17156.6186861637 | epot = 0 | etot = 17156.6186861637
254  ekin = 17156.6186861637 | epot = 0 | etot = 17156.6186861637
255  ekin = 17156.6186861637 | epot = 0 | etot = 17156.6186861637
256  ekin = 17156.6186861637 | epot = 0 | etot = 17156.6186861637
257  ekin = 17156.6186861637 | epot = 0 | etot = 17156.6186861637
258  ekin = 17156.6186861637 | epot = 0 | etot = 17156.6186861637
259  ekin = 17156.6186861637 | epot = 0 | etot = 17156.6186861637
260  ekin = 17156.6186861637 | epot = 0 | etot = 17156.6186861637
261  ekin = 17156.6186861637 | epot = 0 | etot = 17156.6186861637
262  ekin = 17156.6186861637 | epot = 0 | etot = 17156.6186861637
263  ekin = 17156.6186861637 | epot = 0 | etot = 17156.6186861637
264  ekin = 17156.6186861637 | epot = 0 | etot = 17156.6186861637
265  ekin = 17156.6186861637 | epot = 0 | etot = 17156.6186861637
266  ekin = 17156.6186861637 | epot = 0 | etot = 17156.6186861637
267  ekin = 17156.6186861637 | epot = 0 | etot = 17156.6186861637
268  ekin = 17156.6186861637 | epot = 0 | etot = 17156.6186861637
269  ekin = 17156.6186861637 | epot = 0 | etot = 17156.6186861637
270  ekin = 17156.6186861637 | epot = 0 | etot = 17156.6186861637
271  ekin = 17156.6186861637 | epot = 0 | etot = 17156.6186861637
272  ekin = 17156.6186861637 | epot = 0 | etot = 17156.6186861637
273  ekin = 17156.6186861637 | epot = 0 | etot = 17156.6186861637
274  ekin = 17156.6186861637 | epot = 0 | etot = 17156.6186861637
275  ekin = 17156.6186861637 | epot = 0 | etot = 17156.6186861637
276  ekin = 17156.6186861637 | epot = 0 | etot = 17156.6186861637
277  ekin = 17156.6186861637 | epot = 0 | etot = 17156.6186861637
278  ekin = 17156.6186861637 | epot = 0 | etot = 17156.6186861637
279  ekin = 17156.6186861637 | epot = 0 | etot = 17156.6186861637
280  ekin = 17156.6186861637 | epot = 0 | etot = 17156.6186861637
281  ekin = 17156.6186861637 | epot = 0 | etot = 17156.6186861637
282  ekin = 17156.6186861637 | epot = 0 | etot = 17156.6186861637
283  ekin = 17156.6186861637 | epot = 0 | etot = 17156.6186861637
284  ekin = 17156.6186861637 | epot = 0 | etot = 17156.6186861637
285  ekin = 17156.6186861637 | epot = 0 | etot = 17156.6186861637
286  ekin = 17156.6186861637 | epot = 0 | etot = 17156.6186861637
287  ekin = 17156.6186861637 | epot = 0 | etot = 17156.6186861637
288  ekin = 17156.6186861637 | epot = 0 | etot = 17156.6186861637
289  ekin = 17156.6186861637 | epot = 0 | etot = 17156.6186861637
290  ekin = 17156.6186861637 | epot = 0 | etot = 17156.6186861637
291  ekin = 17156.6186861637 | epot = 0 | etot = 17156.6186861637
292  ekin = 17156.6186861637 | epot = 0 | etot = 17156.6186861637
293  ekin = 17156.6186861637 | epot = 0 | etot = 17156.6186861637
294  ekin = 17156.6186861637 | epot = 0 | etot = 17156.6186861637
295  ekin = 17156.6186861637 | epot = 0 | etot = 17156.6186861637
296  ekin = 17156.6186861637 | epot = 0 | etot = 17156.6186861637
297  ekin = 17156.6186861637 | epot = 0 | etot = 17156.6186861637
298  ekin = 17156.6186861637 | epot = 0 | etot = 17156.6186861637
299  ekin = 17156.6186861637 | epot = 0 | etot = 17156.6186861637
300  ekin = 17156.6186861637 | epot = 0 | etot = 17156.6186861637
301  ekin = 17156.6186861637 | epot = 0 | etot = 17156.6186861637
302  ekin = 17156.6186861637 | epot = 0 | etot = 17156.6186861637
303  ekin = 17156.6186861637 | epot = 0 | etot = 17156.6186861637
304  ekin = 17156.6186861637 | epot = 0 | etot = 17156.6186861637
305  ekin = 17156.6186861637 | epot = 0 | etot = 17156.6186861637
306  ekin = 17156.6186861637 | epot = 0 | etot = 17156.6186861637
307  ekin = 17156.6186861637 | epot = 0 | etot = 17156.6186861637
308  ekin = 17156.6186861637 | epot = 0 | etot = 17156.6186861637
309  ekin = 17156.6186861637 | epot = 0 | etot = 17156.6186861637
310  ekin = 17156.6186861637 | epot = 0 | etot = 17156.6186861637
311  ekin = 17156.6186861637 | epot = 0 | etot = 17156.6186861637
312  ekin = 17156.6186861637 | epot = 0 | etot = 17156.6186861637
313  ekin = 17156.6186861637 | epot = 0 | etot = 17156.6186861637
314  ekin = 17156.6186861637 | epot = 0 | etot = 17156.6186861637
315  ekin = 17156.6186861637 | epot = 0 | etot = 17156.6186861637
316  ekin = 17156.6186861637 | epot = 0 | etot = 17156.6186861637
317  ekin = 17156.6186861637 | epot = 0 | etot = 17156.6186861637
318  ekin = 17156.6186861637 | epot = 0 | etot = 17156.6186861637
319  ekin = 17156.6186861637 | epot = 0 | etot = 17156.6186861637
320  ekin = 17156.6186861637 | epot = 0 | etot = 17156.6186861637
321  ekin = 17156.6186861637 | epot = 0 | etot = 17156.6186861637
322  ekin = 17156.6186861637 | epot = 0 | etot = 17156.6186861637
323  ekin = 17156.6186861637 | epot = 0 | etot = 17156.6186861637
324  ekin = 17156.6186861637 | epot = 0 | etot = 17156.6186861637
325  ekin = 17156.6186861637 | epot = 0 | etot = 17156.6186861637
326  ekin = 17156.6186861637 | epot = 0 | etot = 17156.6186861637
327  ekin = 17156.6186861637 | epot = 0 | etot = 17156.6186861637
328  ekin = 17156.6186861637 | epot = 0 | etot = 17156.6186861637
329  ekin = 17156.6186861637 | epot = 0 | etot = 17156.6186861637
330  ekin = 17156.6186861637 | epot = 0 | etot = 17156.6186861637
331  ekin = 17156.6186861637 | epot = 0 | etot = 17156.6186861637
332  ekin = 17156.6186861637 | epot = 0 | etot = 17156.6186861637
333  ekin = 17156.6186861637 | epot = 0 | etot = 17156.6186861637
334  ekin = 17156.6186861637 | epot = 0 | etot = 17156.6186861637
335  ekin = 17156.6186861637 | epot = 0 | etot = 17156.6186861637
336  ekin = 17156.6186861637 | epot = 0 | etot = 17156.6186861637
337  ekin = 17156.6186861637 | epot = 0 | etot = 17156.6186861637
338  ekin = 17156.6186861637 | epot = 0 | etot = 17156.6186861637
339  ekin = 17156.6186861637 | epot = 0 | etot = 17156.6186861637
340  ekin = 17156.6186861637 | epot = 0 | etot = 17156.6186861637
341  ekin = 17156.6186861637 | epot = 0 | etot = 17156.6186861637
342  ekin = 17156.6186861637 | epot = 0 | etot = 17156.6186861637
343  ekin = 17156.6186861637 | epot = 0 | etot = 17156.6186861637
344  ekin = 17156.6186861637 | epot = 0 | etot = 17156.6186861637
345  ekin = 17156.6186861637 | epot = 0 | etot = 17156.6186861637
346  ekin = 17156.6186861637 | epot = 0 | etot = 17156.6186861637
347  ekin = 17156.6186861637 | epot = 0 | etot = 17156.6186861637
348  ekin = 17156.6186861637 | epot = 0 | etot = 17156.6186861637
349  ekin = 17156.6186861637 | epot = 0 | etot = 17156.6186861637
350  ekin = 17156.6186861637 | epot = 0 | etot = 17156.6186861637
351  ekin = 17156.6186861637 | epot = 0 | etot = 17156.6186861637
352  ekin = 17156.6186861637 | epot = 0 | etot = 17156.6186861637
353  ekin = 17156.6186861637 | epot = 0 | etot = 17156.6186861637
354  ekin = 17156.6186861637 | epot = 0 | etot = 17156.6186861637
355  ekin = 17156.6186861637 | epot = 0 | etot = 17156.6186861637
356  ekin = 17156.6186861637 | epot = 0 | etot = 17156.6186861637
357  ekin = 17156.6186861637 | epot = 0 | etot = 17156.6186861637
358  ekin = 17156.6186861637 | epot = 0 | etot = 17156.6186861637
359  ekin = 17156.6186861637 | epot = 0 | etot = 17156.6186861637
360  ekin = 17156.6186861637 | epot = 0 | etot = 17156.6186861637
361  ekin = 17156.6186861637 | epot = 0 | etot = 17156.6186861637
362  ekin = 17156.6186861637 | epot = 0 | etot = 17156.6186861637
363  ekin = 17156.6186861637 | epot = 0 | etot = 17156.6186861637
364  ekin = 17156.6186861637 | epot = 0 | etot = 17156.6186861637
365  ekin = 17156.6186861637 | epot = 0 | etot = 17156.6186861637
366  ekin = 17156.6186861637 | epot = 0 | etot = 17156.6186861637
367  ekin = 17156.6186861637 | epot = 0 | etot = 17156.6186861637
368  ekin = 17156.6186861637 | epot = 0 | etot = 17156.6186861637
369  ekin = 17156.6186861637 | epot = 0 | etot = 17156.6186861637
370  ekin = 17156.6186861637 | epot = 0 | etot = 17156.6186861637
371  ekin = 17156.6186861637 | epot = 0 | etot = 17156.6186861637
372  ekin = 17156.6186861637 | epot = 0 | etot = 17156.6186861637
373  ekin = 17156.6186861637 | epot = 0 | etot = 17156.6186861637
374  ekin = 17156.6186861637 | epot = 0 | etot = 17156.6186861637
375  ekin = 17156.6186861637 | epot = 0 | etot = 17156.6186861637
376  ekin = 17156.6186861637 | epot = 0 | etot = 17156.6186861637
377  ekin = 17156.6186861637 | epot = 0 | etot = 17156.6186861637
378  ekin = 17156.6186861637 | epot = 0 | etot = 17156.6186861637
379  ekin = 17156.6186861637 | epot = 0 | etot = 17156.6186861637
380  ekin = 17156.6186861637 | epot = 0 | etot = 17156.6186861637
381  ekin = 17156.6186861637 | epot = 0 | etot = 17156.6186861637
382  ekin = 17156.6186861637 | epot = 0 | etot = 17156.6186861637
383  ekin = 17156.6186861637 | epot = 0 | etot = 17156.6186861637
384  ekin = 17156.6186861637 | epot = 0 | etot = 17156.6186861637
385  ekin = 17156.6186861637 | epot = 0 | etot = 17156.6186861637
386  ekin = 17156.6186861637 | epot = 0 | etot = 17156.6186861637
387  ekin = 17156.6186861637 | epot = 0 | etot = 17156.6186861637
388  ekin = 17156.6186861637 | epot = 0 | etot = 17156.6186861637
389  ekin = 17156.6186861637 | epot = 0 | etot = 17156.6186861637
390  ekin = 17156.6186861637 | epot = 0 | etot = 17156.6186861637
391  ekin = 17156.6186861637 | epot = 0 | etot = 17156.6186861637
392  ekin = 17156.6186861637 | epot = 0 | etot = 17156.6186861637
393  ekin = 17156.6186861637 | epot = 0 | etot = 17156.6186861637
394  ekin = 17156.6186861637 | epot = 0 | etot = 17156.6186861637
395  ekin = 17156.6186861637 | epot = 0 | etot = 17156.6186861637
396  ekin = 17156.6186861637 | epot = 0 | etot = 17156.6186861637
397  ekin = 17156.6186861637 | epot = 0 | etot = 17156.6186861637
398  ekin = 17156.6186861637 | epot = 0 | etot = 17156.6186861637
399  ekin = 17156.6186861637 | epot = 0 | etot = 17156.6186861637
400  ekin = 17156.6186861637 | epot = 0 | etot = 17156.6186861637
401  ekin = 17156.6186861637 | epot = 0 | etot = 17156.6186861637
402  ekin = 17156.6186861637 | epot = 0 | etot = 17156.6186861637
403  ekin = 17156.6186861637 | epot = 0 | etot = 17156.6186861637
404  ekin = 17156.6186861637 | epot = 0 | etot = 17156.6186861637
405  ekin = 17156.6186861637 | epot = 0 | etot = 17156.6186861637
406  ekin = 17156.6186861637 | epot = 0 | etot = 17156.6186861637
407  ekin = 17156.6186861637 | epot = 0 | etot = 17156.6186861637
408  ekin = 17156.6186861637 | epot = 0 | etot = 17156.6186861637
409  ekin = 17156.6186861637 | epot = 0 | etot = 17156.6186861637
410  ekin = 17156.6186861637 | epot = 0 | etot = 17156.6186861637
411  ekin = 17156.6186861637 | epot = 0 | etot = 17156.6186861637
412  ekin = 17156.6186861637 | epot = 0 | etot = 17156.6186861637
413  ekin = 17156.6186861637 | epot = 0 | etot = 17156.6186861637
414  ekin = 17156.6186861637 | epot = 0 | etot = 17156.6186861637
415  ekin = 17156.6186861637 | epot = 0 | etot = 17156.6186861637
416  ekin = 17156.6186861637 | epot = 0 | etot = 17156.6186861637
417  ekin = 17156.6186861637 | epot = 0 | etot = 17156.6186861637
418  ekin = 17156.6186861637 | epot = 0 | etot = 17156.6186861637
419  ekin = 17156.6186861637 | epot = 0 | etot = 17156.6186861637
420  ekin = 17156.6186861637 | epot = 0 | etot = 17156.6186861637
421  ekin = 17156.6186861637 | epot = 0 | etot = 17156.6186861637
422  ekin = 17156.6186861637 | epot = 0 | etot = 17156.6186861637
423  ekin = 17156.6186861637 | epot = 0 | etot = 17156.6186861637
424  ekin = 17156.6186861637 | epot = 0 | etot = 17156.6186861637
425  ekin = 17156.6186861637 | epot = 0 | etot = 17156.6186861637
426  ekin = 17156.6186861637 | epot = 0 | etot = 17156.6186861637
427  ekin = 17156.6186861637 | epot = 0 | etot = 17156.6186861637
428  ekin = 17156.6186861637 | epot = 0 | etot = 17156.6186861637
429  ekin = 17156.6186861637 | epot = 0 | etot = 17156.6186861637
430  ekin = 17156.6186861637 | epot = 0 | etot = 17156.6186861637
431  ekin = 17156.6186861637 | epot = 0 | etot = 17156.6186861637
432  ekin = 17156.6186861637 | epot = 0 | etot = 17156.6186861637
433  ekin = 17156.6186861637 | epot = 0 | etot = 17156.6186861637
434  ekin = 17156.6186861637 | epot = 0 | etot = 17156.6186861637
435  ekin = 17156.6186861637 | epot = 0 | etot = 17156.6186861637
436  ekin = 17156.6186861637 | epot = 0 | etot = 17156.6186861637
437  ekin = 17156.6186861637 | epot = 0 | etot = 17156.6186861637
438  ekin = 17156.6186861637 | epot = 0 | etot = 17156.6186861637
439  ekin = 17156.6186861637 | epot = 0 | etot = 17156.6186861637
440  ekin = 17156.6186861637 | epot = 0 | etot = 17156.6186861637
441  ekin = 17156.6186861637 | epot = 0 | etot = 17156.6186861637
442  ekin = 17156.6186861637 | epot = 0 | etot = 17156.6186861637
443  ekin = 17156.6186861637 | epot = 0 | etot = 17156.6186861637
444  ekin = 17156.6186861637 | epot = 0 | etot = 17156.6186861637
445  ekin = 17156.6186861637 | epot = 0 | etot = 17156.6186861637
446  ekin = 17156.6186861637 | epot = 0 | etot = 17156.6186861637
447  ekin = 17156.6186861637 | epot = 0 | etot = 17156.6186861637
448  ekin = 17156.6186861637 | epot = 0 | etot = 17156.6186861637
449  ekin = 17156.6186861637 | epot = 0 | etot = 17156.6186861637
450  ekin = 17156.6186861637 | epot = 0 | etot = 17156.6186861637
451  ekin = 17156.6186861637 | epot = 0 | etot = 17156.6186861637
452  ekin = 17156.6186861637 | epot = 0 | etot = 17156.6186861637
453  ekin = 17156.6186861637 | epot = 0 | etot = 17156.6186861637
454  ekin = 17156.6186861637 | epot = 0 | etot = 17156.6186861637
455  ekin = 17156.6186861637 | epot = 0 | etot = 17156.6186861637
456  ekin = 17156.6186861637 | epot = 0 | etot = 17156.6186861637
457  ekin = 17156.6186861637 | epot = 0 | etot = 17156.6186861637
458  ekin = 17156.6186861637 | epot = 0 | etot = 17156.6186861637
459  ekin = 17156.6186861637 | epot = 0 | etot = 17156.6186861637
460  ekin = 17156.6186861637 | epot = 0 | etot = 17156.6186861637
461  ekin = 17156.6186861637 | epot = 0 | etot = 17156.6186861637
462  ekin = 17156.6186861637 | epot = 0 | etot = 17156.6186861637
463  ekin = 17156.6186861637 | epot = 0 | etot = 17156.6186861637
464  ekin = 17156.6186861637 | epot = 0 | etot = 17156.6186861637
465  ekin = 17156.6186861637 | epot = 0 | etot = 17156.6186861637
466  ekin = 17156.6186861637 | epot = 0 | etot = 17156.6186861637
467  ekin = 17156.6186861637 | epot = 0 | etot = 17156.6186861637
468  ekin = 17156.6186861637 | epot = 0 | etot = 17156.6186861637
469  ekin = 17156.6186861637 | epot = 0 | etot = 17156.6186861637
470  ekin = 17156.6186861637 | epot = 0 | etot = 17156.6186861637
471  ekin = 17156.6186861637 | epot = 0 | etot = 17156.6186861637
472  ekin = 17156.6186861637 | epot = 0 | etot = 17156.6186861637
473  ekin = 17156.6186861637 | epot = 0 | etot = 17156.6186861637
474  ekin = 17156.6186861637 | epot = 0 | etot = 17156.6186861637
475  ekin = 17156.6186861637 | epot = 0 | etot = 17156.6186861637
476  ekin = 17156.6186861637 | epot = 0 | etot = 17156.6186861637
477  ekin = 17156.6186861637 | epot = 0 | etot = 17156.6186861637
478  ekin = 17156.6186861637 | epot = 0 | etot = 17156.6186861637
479  ekin = 17156.6186861637 | epot = 0 | etot = 17156.6186861637
480  ekin = 17156.6186861637 | epot = 0 | etot = 17156.6186861637
481  ekin = 17156.6186861637 | epot = 0 | etot = 17156.6186861637
482  ekin = 17156.6186861637 | epot = 0 | etot = 17156.6186861637
483  ekin = 17156.6186861637 | epot = 0 | etot = 17156.6186861637
484  ekin = 17156.6186861637 | epot = 0 | etot = 17156.6186861637
485  ekin = 17156.6186861637 | epot = 0 | etot = 17156.6186861637
486  ekin = 17156.6186861637 | epot = 0 | etot = 17156.6186861637
487  ekin = 17156.6186861637 | epot = 0 | etot = 17156.6186861637
488  ekin = 17156.6186861637 | epot = 0 | etot = 17156.6186861637
489  ekin = 17156.6186861637 | epot = 0 | etot = 17156.6186861637
490  ekin = 17156.6186861637 | epot = 0 | etot = 17156.6186861637
491  ekin = 17156.6186861637 | epot = 0 | etot = 17156.6186861637
492  ekin = 17156.6186861637 | epot = 0 | etot = 17156.6186861637
493  ekin = 17156.6186861637 | epot = 0 | etot = 17156.6186861637
494  ekin = 17156.6186861637 | epot = 0 | etot = 17156.6186861637
495  ekin = 17156.6186861637 | epot = 0 | etot = 17156.6186861637
496  ekin = 17156.6186861637 | epot = 0 | etot = 17156.6186861637
497  ekin = 17156.6186861637 | epot = 0 | etot = 17156.6186861637
498  ekin = 17156.6186861637 | epot = 0 | etot = 17156.6186861637
499  ekin = 17156.6186861637 | epot = 0 | etot = 17156.6186861637
500  ekin = 17156.6186861637 | epot = 0 | etot = 17156.6186861637
501  ekin = 17156.6186861637 | epot = 0 | etot = 17156.6186861637
502  ekin = 17156.6186861637 | epot = 0 | etot = 17156.6186861637
503  ekin = 17156.6186861637 | epot = 0 | etot = 17156.6186861637
504  ekin = 17156.6186861637 | epot = 0 | etot = 17156.6186861637
505  ekin = 17156.6186861637 | epot = 0 | etot = 17156.6186861637
506  ekin = 17156.6186861637 | epot = 0 | etot = 17156.6186861637
507  ekin = 17156.6186861637 | epot = 0 | etot = 17156.6186861637
508  ekin = 17156.6186861637 | epot = 0 | etot = 17156.6186861637
509  ekin = 17156.6186861637 | epot = 0 | etot = 17156.6186861637
510  ekin = 17156.6186861637 | epot = 0 | etot = 17156.6186861637
511  ekin = 17156.6186861637 | epot = 0 | etot = 17156.6186861637
512  ekin = 17156.6186861637 | epot = 0 | etot = 17156.6186861637
513  ekin = 17156.6186861637 | epot = 0 | etot = 17156.6186861637
514  ekin = 17156.6186861637 | epot = 0 | etot = 17156.6186861637
515  ekin = 17156.6186861637 | epot = 0 | etot = 17156.6186861637
516  ekin = 17156.6186861637 | epot = 0 | etot = 17156.6186861637
517  ekin = 17156.6186861637 | epot = 0 | etot = 17156.6186861637
518  ekin = 17156.6186861637 | epot = 0 | etot = 17156.6186861637
519  ekin = 17156.6186861637 | epot = 0 | etot = 17156.6186861637
520  ekin = 17156.6186861637 | epot = 0 | etot = 17156.6186861637
521  ekin = 17156.6186861637 | epot = 0 | etot = 17156.6186861637
522  ekin = 17156.6186861637 | epot = 0 | etot = 17156.6186861637
523  ekin = 17156.6186861637 | epot = 0 | etot = 17156.6186861637
524  ekin = 17156.6186861637 | epot = 0 | etot = 17156.6186861637
525  ekin = 17156.6186861637 | epot = 0 | etot = 17156.6186861637
526  ekin = 17156.6186861637 | epot = 0 | etot = 17156.6186861637
527  ekin = 17156.6186861637 | epot = 0 | etot = 17156.6186861637
528  ekin = 17156.6186861637 | epot = 0 | etot = 17156.6186861637
529  ekin = 17156.6186861637 | epot = 0 | etot = 17156.6186861637
530  ekin = 17156.6186861637 | epot = 0 | etot = 17156.6186861637
531  ekin = 17156.6186861637 | epot = 0 | etot = 17156.6186861637
532  ekin = 17156.6186861637 | epot = 0 | etot = 17156.6186861637
533  ekin = 17156.6186861637 | epot = 0 | etot = 17156.6186861637
534  ekin = 17156.6186861637 | epot = 0 | etot = 17156.6186861637
535  ekin = 17156.6186861637 | epot = 0 | etot = 17156.6186861637
536  ekin = 17156.6186861637 | epot = 0 | etot = 17156.6186861637
537  ekin = 17156.6186861637 | epot = 0 | etot = 17156.6186861637
538  ekin = 17156.6186861637 | epot = 0 | etot = 17156.6186861637
539  ekin = 17156.6186861637 | epot = 0 | etot = 17156.6186861637
540  ekin = 17156.6186861637 | epot = 0 | etot = 17156.6186861637
541  ekin = 17156.6186861637 | epot = 0 | etot = 17156.6186861637
542  ekin = 17156.6186861637 | epot = 0 | etot = 17156.6186861637
543  ekin = 17156.6186861637 | epot = 0 | etot = 17156.6186861637
544  ekin = 17156.6186861637 | epot = 0 | etot = 17156.6186861637
545  ekin = 17156.6186861637 | epot = 0 | etot = 17156.6186861637
546  ekin = 17156.6186861637 | epot = 0 | etot = 17156.6186861637
547  ekin = 17156.6186861637 | epot = 0 | etot = 17156.6186861637
548  ekin = 17156.6186861637 | epot = 0 | etot = 17156.6186861637
549  ekin = 17156.6186861637 | epot = 0 | etot = 17156.6186861637
550  ekin = 17156.6186861637 | epot = 0 | etot = 17156.6186861637
551  ekin = 17156.6186861637 | epot = 0 | etot = 17156.6186861637
552  ekin = 17156.6186861637 | epot = 0 | etot = 17156.6186861637
553  ekin = 17156.6186861637 | epot = 0 | etot = 17156.6186861637
554  ekin = 17156.6186861637 | epot = 0 | etot = 17156.6186861637
555  ekin = 17156.6186861637 | epot = 0 | etot = 17156.6186861637
556  ekin = 17156.6186861637 | epot = 0 | etot = 17156.6186861637
557  ekin = 17156.6186861637 | epot = 0 | etot = 17156.6186861637
558  ekin = 17156.6186861637 | epot = 0 | etot = 17156.6186861637
559  ekin = 17156.6186861637 | epot = 0 | etot = 17156.6186861637
560  ekin = 17156.6186861637 | epot = 0 | etot = 17156.6186861637
561  ekin = 17156.6186861637 | epot = 0 | etot = 17156.6186861637
562  ekin = 17156.6186861637 | epot = 0 | etot = 17156.6186861637
563  ekin = 17156.6186861637 | epot = 0 | etot = 17156.6186861637
564  ekin = 17156.6186861637 | epot = 0 | etot = 17156.6186861637
565  ekin = 17156.6186861637 | epot = 0 | etot = 17156.6186861637
566  ekin = 17156.6186861637 | epot = 0 | etot = 17156.6186861637
567  ekin = 17156.6186861637 | epot = 0 | etot = 17156.6186861637
568  ekin = 17156.6186861637 | epot = 0 | etot = 17156.6186861637
569  ekin = 17156.6186861637 | epot = 0 | etot = 17156.6186861637
570  ekin = 17156.6186861637 | epot = 0 | etot = 17156.6186861637
571  ekin = 17156.6186861637 | epot = 0 | etot = 17156.6186861637
572  ekin = 17156.6186861637 | epot = 0 | etot = 17156.6186861637
573  ekin = 17156.6186861637 | epot = 0 | etot = 17156.6186861637
574  ekin = 17156.6186861637 | epot = 0 | etot = 17156.6186861637
575  ekin = 17156.6186861637 | epot = 0 | etot = 17156.6186861637
576  ekin = 17156.6186861637 | epot = 0 | etot = 17156.6186861637
577  ekin = 17156.6186861637 | epot = 0 | etot = 17156.6186861637
578  ekin = 17156.6186861637 | epot = 0 | etot = 17156.6186861637
579  ekin = 17156.6186861637 | epot = 0 | etot = 17156.6186861637
580  ekin = 17156.6186861637 | epot = 0 | etot = 17156.6186861637
581  ekin = 17156.6186861637 | epot = 0 | etot = 17156.6186861637
582  ekin = 17156.6186861637 | epot = 0 | etot = 17156.6186861637
583  ekin = 17156.6186861637 | epot = 0 | etot = 17156.6186861637
584  ekin = 17156.6186861637 | epot = 0 | etot = 17156.6186861637
585  ekin = 17156.6186861637 | epot = 0 | etot = 17156.6186861637
586  ekin = 17156.6186861637 | epot = 0 | etot = 17156.6186861637
587  ekin = 17156.6186861637 | epot = 0 | etot = 17156.6186861637
588  ekin = 17156.6186861637 | epot = 0 | etot = 17156.6186861637
589  ekin = 17156.6186861637 | epot = 0 | etot = 17156.6186861637
590  ekin = 17156.6186861637 | epot = 0 | etot = 17156.6186861637
591  ekin = 17156.6186861637 | epot = 0 | etot = 17156.6186861637
592  ekin = 17156.6186861637 | epot = 0 | etot = 17156.6186861637
593  ekin = 17156.6186861637 | epot = 0 | etot = 17156.6186861637
594  ekin = 17156.6186861637 | epot = 0 | etot = 17156.6186861637
595  ekin = 17156.6186861637 | epot = 0 | etot = 17156.6186861637
596  ekin = 17156.6186861637 | epot = 0 | etot = 17156.6186861637
597  ekin = 17156.6186861637 | epot = 0 | etot = 17156.6186861637
598  ekin = 17156.6186861637 | epot = 0 | etot = 17156.6186861637
599  ekin = 17156.6186861637 | epot = 0 | etot = 17156.6186861637
600  ekin = 17156.6186861637 | epot = 0 | etot = 17156.6186861637
601  ekin = 17156.6186861637 | epot = 0 | etot = 17156.6186861637
602  ekin = 17156.6186861637 | epot = 0 | etot = 17156.6186861637
603  ekin = 17156.6186861637 | epot = 0 | etot = 17156.6186861637
604  ekin = 17156.6186861637 | epot = 0 | etot = 17156.6186861637
605  ekin = 17156.6186861637 | epot = 0 | etot = 17156.6186861637
606  ekin = 17156.6186861637 | epot = 0 | etot = 17156.6186861637
607  ekin = 17156.6186861637 | epot = 0 | etot = 17156.6186861637
608  ekin = 17156.6186861637 | epot = 0 | etot = 17156.6186861637
609  ekin = 17156.6186861637 | epot = 0 | etot = 17156.6186861637
610  ekin = 17156.6186861637 | epot = 0 | etot = 17156.6186861637
611  ekin = 17156.6186861637 | epot = 0 | etot = 17156.6186861637
612  ekin = 17156.6186861637 | epot = 0 | etot = 17156.6186861637
613  ekin = 17156.6186861637 | epot = 0 | etot = 17156.6186861637
614  ekin = 17156.6186861637 | epot = 0 | etot = 17156.6186861637
615  ekin = 17156.6186861637 | epot = 0 | etot = 17156.6186861637
616  ekin = 17156.6186861637 | epot = 0 | etot = 17156.6186861637
617  ekin = 17156.6186861637 | epot = 0 | etot = 17156.6186861637
618  ekin = 17156.6186861637 | epot = 0 | etot = 17156.6186861637
619  ekin = 17156.6186861637 | epot = 0 | etot = 17156.6186861637
620  ekin = 17156.6186861637 | epot = 0 | etot = 17156.6186861637
621  ekin = 17156.6186861637 | epot = 0 | etot = 17156.6186861637
622  ekin = 17156.6186861637 | epot = 0 | etot = 17156.6186861637
623  ekin = 17156.6186861637 | epot = 0 | etot = 17156.6186861637
624  ekin = 17156.6186861637 | epot = 0 | etot = 17156.6186861637
625  ekin = 17156.6186861637 | epot = 0 | etot = 17156.6186861637
626  ekin = 17156.6186861637 | epot = 0 | etot = 17156.6186861637
627  ekin = 17156.6186861637 | epot = 0 | etot = 17156.6186861637
628  ekin = 17156.6186861637 | epot = 0 | etot = 17156.6186861637
629  ekin = 17156.6186861637 | epot = 0 | etot = 17156.6186861637
630  ekin = 17156.6186861637 | epot = 0 | etot = 17156.6186861637
631  ekin = 17156.6186861637 | epot = 0 | etot = 17156.6186861637
632  ekin = 17156.6186861637 | epot = 0 | etot = 17156.6186861637
633  ekin = 17156.6186861637 | epot = 0 | etot = 17156.6186861637
634  ekin = 17156.6186861637 | epot = 0 | etot = 17156.6186861637
635  ekin = 17156.6186861637 | epot = 0 | etot = 17156.6186861637
636  ekin = 17156.6186861637 | epot = 0 | etot = 17156.6186861637
637  ekin = 17156.6186861637 | epot = 0 | etot = 17156.6186861637
638  ekin = 17156.6186861637 | epot = 0 | etot = 17156.6186861637
639  ekin = 17156.6186861637 | epot = 0 | etot = 17156.6186861637
640  ekin = 17156.6186861637 | epot = 0 | etot = 17156.6186861637
641  ekin = 17156.6186861637 | epot = 0 | etot = 17156.6186861637
642  ekin = 17156.6186861637 | epot = 0 | etot = 17156.6186861637
643  ekin = 17156.6186861637 | epot = 0 | etot = 17156.6186861637
644  ekin = 17156.6186861637 | epot = 0 | etot = 17156.6186861637
645  ekin = 17156.6186861637 | epot = 0 | etot = 17156.6186861637
646  ekin = 17156.6186861637 | epot = 0 | etot = 17156.6186861637
647  ekin = 17156.6186861637 | epot = 0 | etot = 17156.6186861637
648  ekin = 17156.6186861637 | epot = 0 | etot = 17156.6186861637
649  ekin = 17156.6186861637 | epot = 0 | etot = 17156.6186861637
650  ekin = 17156.6186861637 | epot = 0 | etot = 17156.6186861637
651  ekin = 17156.6186861637 | epot = 0 | etot = 17156.6186861637
652  ekin = 17156.6186861637 | epot = 0 | etot = 17156.6186861637
653  ekin = 17156.6186861637 | epot = 0 | etot = 17156.6186861637
654  ekin = 17156.6186861637 | epot = 0 | etot = 17156.6186861637
655  ekin = 17156.6186861637 | epot = 0 | etot = 17156.6186861637
656  ekin = 17156.6186861637 | epot = 0 | etot = 17156.6186861637
657  ekin = 17156.6186861637 | epot = 0 | etot = 17156.6186861637
658  ekin = 17156.6186861637 | epot = 0 | etot = 17156.6186861637
659  ekin = 17156.6186861637 | epot = 0 | etot = 17156.6186861637
660  ekin = 17156.6186861637 | epot = 0 | etot = 17156.6186861637
661  ekin = 17156.6186861637 | epot = 0 | etot = 17156.6186861637
662  ekin = 17156.6186861637 | epot = 0 | etot = 17156.6186861637
663  ekin = 17156.6186861637 | epot = 0 | etot = 17156.6186861637
664  ekin = 17156.6186861637 | epot = 0 | etot = 17156.6186861637
665  ekin = 17156.6186861637 | epot = 0 | etot = 17156.6186861637
666  ekin = 17156.6186861637 | epot = 0 | etot = 17156.6186861637
667  ekin = 17156.6186861637 | epot = 0 | etot = 17156.6186861637
668  ekin = 17156.6186861637 | epot = 0 | etot = 17156.6186861637
669  ekin = 17156.6186861637 | epot = 0 | etot = 17156.6186861637
670  ekin = 17156.6186861637 | epot = 0 | etot = 17156.6186861637
671  ekin = 17156.6186861637 | epot = 0 | etot = 17156.6186861637
672  ekin = 17156.6186861637 | epot = 0 | etot = 17156.6186861637
673  ekin = 17156.6186861637 | epot = 0 | etot = 17156.6186861637
674  ekin = 17156.6186861637 | epot = 0 | etot = 17156.6186861637
675  ekin = 17156.6186861637 | epot = 0 | etot = 17156.6186861637
676  ekin = 17156.6186861637 | epot = 0 | etot = 17156.6186861637
677  ekin = 17156.6186861637 | epot = 0 | etot = 17156.6186861637
678  ekin = 17156.6186861637 | epot = 0 | etot = 17156.6186861637
679  ekin = 17156.6186861637 | epot = 0 | etot = 17156.6186861637
680  ekin = 17156.6186861637 | epot = 0 | etot = 17156.6186861637
681  ekin = 17156.6186861637 | epot = 0 | etot = 17156.6186861637
682  ekin = 17156.6186861637 | epot = 0 | etot = 17156.6186861637
683  ekin = 17156.6186861637 | epot = 0 | etot = 17156.6186861637
684  ekin = 17156.6186861637 | epot = 0 | etot = 17156.6186861637
685  ekin = 17156.6186861637 | epot = 0 | etot = 17156.6186861637
686  ekin = 17156.6186861637 | epot = 0 | etot = 17156.6186861637
687  ekin = 17156.6186861637 | epot = 0 | etot = 17156.6186861637
688  ekin = 17156.6186861637 | epot = 0 | etot = 17156.6186861637
689  ekin = 17156.6186861637 | epot = 0 | etot = 17156.6186861637
690  ekin = 17156.6186861637 | epot = 0 | etot = 17156.6186861637
691  ekin = 17156.6186861637 | epot = 0 | etot = 17156.6186861637
692  ekin = 17156.6186861637 | epot = 0 | etot = 17156.6186861637
693  ekin = 17156.6186861637 | epot = 0 | etot = 17156.6186861637
694  ekin = 17156.6186861637 | epot = 0 | etot = 17156.6186861637
695  ekin = 17156.6186861637 | epot = 0 | etot = 17156.6186861637
696  ekin = 17156.6186861637 | epot = 0 | etot = 17156.6186861637
697  ekin = 17156.6186861637 | epot = 0 | etot = 17156.6186861637
698  ekin = 17156.6186861637 | epot = 0 | etot = 17156.6186861637
699  ekin = 17156.6186861637 | epot = 0 | etot = 17156.6186861637
700  ekin = 17156.6186861637 | epot = 0 | etot = 17156.6186861637
701  ekin = 17156.6186861637 | epot = 0 | etot = 17156.6186861637
702  ekin = 17156.6186861637 | epot = 0 | etot = 17156.6186861637
703  ekin = 17156.6186861637 | epot = 0 | etot = 17156.6186861637
704  ekin = 17156.6186861637 | epot = 0 | etot = 17156.6186861637
705  ekin = 17156.6186861637 | epot = 0 | etot = 17156.6186861637
706  ekin = 17156.6186861637 | epot = 0 | etot = 17156.6186861637
707  ekin = 17156.6186861637 | epot = 0 | etot = 17156.6186861637
708  ekin = 17156.6186861637 | epot = 0 | etot = 17156.6186861637
709  ekin = 17156.6186861637 | epot = 0 | etot = 17156.6186861637
710  ekin = 17156.6186861637 | epot = 0 | etot = 17156.6186861637
711  ekin = 17156.6186861637 | epot = 0 | etot = 17156.6186861637
712  ekin = 17156.6186861637 | epot = 0 | etot = 17156.6186861637
713  ekin = 17156.6186861637 | epot = 0 | etot = 17156.6186861637
714  ekin = 17156.6186861637 | epot = 0 | etot = 17156.6186861637
715  ekin = 17156.6186861637 | epot = 0 | etot = 17156.6186861637
716  ekin = 17156.6186861637 | epot = 0 | etot = 17156.6186861637
717  ekin = 17156.6186861637 | epot = 0 | etot = 17156.6186861637
718  ekin = 17156.6186861637 | epot = 0 | etot = 17156.6186861637
719  ekin = 17156.6186861637 | epot = 0 | etot = 17156.6186861637
720  ekin = 17156.6186861637 | epot = 0 | etot = 17156.6186861637
721  ekin = 17156.6186861637 | epot = 0 | etot = 17156.6186861637
722  ekin = 17156.6186861637 | epot = 0 | etot = 17156.6186861637
723  ekin = 17156.6186861637 | epot = 0 | etot = 17156.6186861637
724  ekin = 17156.6186861637 | epot = 0 | etot = 17156.6186861637
725  ekin = 17156.6186861637 | epot = 0 | etot = 17156.6186861637
726  ekin = 17156.6186861637 | epot = 0 | etot = 17156.6186861637
727  ekin = 17156.6186861637 | epot = 0 | etot = 17156.6186861637
728  ekin = 17156.6186861637 | epot = 0 | etot = 17156.6186861637
729  ekin = 17156.6186861637 | epot = 0 | etot = 17156.6186861637
730  ekin = 17156.6186861637 | epot = 0 | etot = 17156.6186861637
731  ekin = 17156.6186861637 | epot = 0 | etot = 17156.6186861637
732  ekin = 17156.6186861637 | epot = 0 | etot = 17156.6186861637
733  ekin = 17156.6186861637 | epot = 0 | etot = 17156.6186861637
734  ekin = 17156.6186861637 | epot = 0 | etot = 17156.6186861637
735  ekin = 17156.6186861637 | epot = 0 | etot = 17156.6186861637
736  ekin = 17156.6186861637 | epot = 0 | etot = 17156.6186861637
737  ekin = 17156.6186861637 | epot = 0 | etot = 17156.6186861637
738  ekin = 17156.6186861637 | epot = 0 | etot = 17156.6186861637
739  ekin = 17156.6186861637 | epot = 0 | etot = 17156.6186861637
740  ekin = 17156.6186861637 | epot = 0 | etot = 17156.6186861637
741  ekin = 17156.6186861637 | epot = 0 | etot = 17156.6186861637
742  ekin = 17156.6186861637 | epot = 0 | etot = 17156.6186861637
743  ekin = 17156.6186861637 | epot = 0 | etot = 17156.6186861637
744  ekin = 17156.6186861637 | epot = 0 | etot = 17156.6186861637
745  ekin = 17156.6186861637 | epot = 0 | etot = 17156.6186861637
746  ekin = 17156.6186861637 | epot = 0 | etot = 17156.6186861637
747  ekin = 17156.6186861637 | epot = 0 | etot = 17156.6186861637
748  ekin = 17156.6186861637 | epot = 0 | etot = 17156.6186861637
749  ekin = 17156.6186861637 | epot = 0 | etot = 17156.6186861637
750  ekin = 17156.6186861637 | epot = 0 | etot = 17156.6186861637
751  ekin = 17156.6186861637 | epot = 0 | etot = 17156.6186861637
752  ekin = 17156.6186861637 | epot = 0 | etot = 17156.6186861637
753  ekin = 17156.6186861637 | epot = 0 | etot = 17156.6186861637
754  ekin = 17156.6186861637 | epot = 0 | etot = 17156.6186861637
755  ekin = 17156.6186861637 | epot = 0 | etot = 17156.6186861637
756  ekin = 17156.6186861637 | epot = 0 | etot = 17156.6186861637
757  ekin = 17156.6186861637 | epot = 0 | etot = 17156.6186861637
758  ekin = 17156.6186861637 | epot = 0 | etot = 17156.6186861637
759  ekin = 17156.6186861637 | epot = 0 | etot = 17156.6186861637
760  ekin = 17156.6186861637 | epot = 0 | etot = 17156.6186861637
761  ekin = 17156.6186861637 | epot = 0 | etot = 17156.6186861637
762  ekin = 17156.6186861637 | epot = 0 | etot = 17156.6186861637
763  ekin = 17156.6186861637 | epot = 0 | etot = 17156.6186861637
764  ekin = 17156.6186861637 | epot = 0 | etot = 17156.6186861637
765  ekin = 17156.6186861637 | epot = 0 | etot = 17156.6186861637
766  ekin = 17156.6186861637 | epot = 0 | etot = 17156.6186861637
767  ekin = 17156.6186861637 | epot = 0 | etot = 17156.6186861637
768  ekin = 17156.6186861637 | epot = 0 | etot = 17156.6186861637
769  ekin = 17156.6186861637 | epot = 0 | etot = 17156.6186861637
770  ekin = 17156.6186861637 | epot = 0 | etot = 17156.6186861637
771  ekin = 17156.6186861637 | epot = 0 | etot = 17156.6186861637
772  ekin = 17156.6186861637 | epot = 0 | etot = 17156.6186861637
773  ekin = 17156.6186861637 | epot = 0 | etot = 17156.6186861637
774  ekin = 17156.6186861637 | epot = 0 | etot = 17156.6186861637
775  ekin = 17156.6186861637 | epot = 0 | etot = 17156.6186861637
776  ekin = 17156.6186861637 | epot = 0 | etot = 17156.6186861637
777  ekin = 17156.6186861637 | epot = 0 | etot = 17156.6186861637
778  ekin = 17156.6186861637 | epot = 0 | etot = 17156.6186861637
779  ekin = 17156.6186861637 | epot = 0 | etot = 17156.6186861637
780  ekin = 17156.6186861637 | epot = 0 | etot = 17156.6186861637
781  ekin = 17156.6186861637 | epot = 0 | etot = 17156.6186861637
782  ekin = 17156.6186861637 | epot = 0 | etot = 17156.6186861637
783  ekin = 17156.6186861637 | epot = 0 | etot = 17156.6186861637
784  ekin = 17156.6186861637 | epot = 0 | etot = 17156.6186861637
785  ekin = 17156.6186861637 | epot = 0 | etot = 17156.6186861637
786  ekin = 17156.6186861637 | epot = 0 | etot = 17156.6186861637
787  ekin = 17156.6186861637 | epot = 0 | etot = 17156.6186861637
788  ekin = 17156.6186861637 | epot = 0 | etot = 17156.6186861637
789  ekin = 17156.6186861637 | epot = 0 | etot = 17156.6186861637
790  ekin = 17156.6186861637 | epot = 0 | etot = 17156.6186861637
791  ekin = 17156.6186861637 | epot = 0 | etot = 17156.6186861637
792  ekin = 17156.6186861637 | epot = 0 | etot = 17156.6186861637
793  ekin = 17156.6186861637 | epot = 0 | etot = 17156.6186861637
794  ekin = 17156.6186861637 | epot = 0 | etot = 17156.6186861637
795  ekin = 17156.6186861637 | epot = 0 | etot = 17156.6186861637
796  ekin = 17156.6186861637 | epot = 0 | etot = 17156.6186861637
797  ekin = 17156.6186861637 | epot = 0 | etot = 17156.6186861637
798  ekin = 17156.6186861637 | epot = 0 | etot = 17156.6186861637
799  ekin = 17156.6186861637 | epot = 0 | etot = 17156.6186861637
800  ekin = 17156.6186861637 | epot = 0 | etot = 17156.6186861637
801  ekin = 17156.6186861637 | epot = 0 | etot = 17156.6186861637
802  ekin = 17156.6186861637 | epot = 0 | etot = 17156.6186861637
803  ekin = 17156.6186861637 | epot = 0 | etot = 17156.6186861637
804  ekin = 17156.6186861637 | epot = 0 | etot = 17156.6186861637
805  ekin = 17156.6186861637 | epot = 0 | etot = 17156.6186861637
806  ekin = 17156.6186861637 | epot = 0 | etot = 17156.6186861637
807  ekin = 17156.6186861637 | epot = 0 | etot = 17156.6186861637
808  ekin = 17156.6186861637 | epot = 0 | etot = 17156.6186861637
809  ekin = 17156.6186861637 | epot = 0 | etot = 17156.6186861637
810  ekin = 17156.6186861637 | epot = 0 | etot = 17156.6186861637
811  ekin = 17156.6186861637 | epot = 0 | etot = 17156.6186861637
812  ekin = 17156.6186861637 | epot = 0 | etot = 17156.6186861637
813  ekin = 17156.6186861637 | epot = 0 | etot = 17156.6186861637
814  ekin = 17156.6186861637 | epot = 0 | etot = 17156.6186861637
815  ekin = 17156.6186861637 | epot = 0 | etot = 17156.6186861637
816  ekin = 17156.6186861637 | epot = 0 | etot = 17156.6186861637
817  ekin = 17156.6186861637 | epot = 0 | etot = 17156.6186861637
818  ekin = 17156.6186861637 | epot = 0 | etot = 17156.6186861637
819  ekin = 17156.6186861637 | epot = 0 | etot = 17156.6186861637
820  ekin = 17156.6186861637 | epot = 0 | etot = 17156.6186861637
821  ekin = 17156.6186861637 | epot = 0 | etot = 17156.6186861637
822  ekin = 17156.6186861637 | epot = 0 | etot = 17156.6186861637
823  ekin = 17156.6186861637 | epot = 0 | etot = 17156.6186861637
824  ekin = 17156.6186861637 | epot = 0 | etot = 17156.6186861637
825  ekin = 17156.6186861637 | epot = 0 | etot = 17156.6186861637
826  ekin = 17156.6186861637 | epot = 0 | etot = 17156.6186861637
827  ekin = 17156.6186861637 | epot = 0 | etot = 17156.6186861637
828  ekin = 17156.6186861637 | epot = 0 | etot = 17156.6186861637
829  ekin = 17156.6186861637 | epot = 0 | etot = 17156.6186861637
830  ekin = 17156.6186861637 | epot = 0 | etot = 17156.6186861637
831  ekin = 17156.2792480735 | epot = 0.693157050712102 | etot = 17156.9724051242
832  ekin = 17155.7069609788 | epot = 1.26567199496023 | etot = 17156.9726329738
833  ekin = 17155.2976804034 | epot = 1.67511661917834 | etot = 17156.9727970226
834  ekin = 17155.0537775549 | epot = 1.91911766493358 | etot = 17156.9728952198
835  ekin = 17154.976671497 | epot = 1.99625483404688 | etot = 17156.972926331
836  ekin = 17155.0668117747 | epot = 1.90607818923721 | etot = 17156.9728899639
837  ekin = 17155.3236728948 | epot = 1.64911368216541 | etot = 17156.972786577
838  ekin = 17155.7457607773 | epot = 1.22685669220249 | etot = 17156.9726174695
839  ekin = 17156.3306310421 | epot = 0.641753712269136 | etot = 17156.9723847543
840  ekin = 17156.6762815127 | epot = 0 | etot = 17156.6762815127
841  ekin = 17156.6762815127 | epot = 0 | etot = 17156.6762815127
842  ekin = 17156.6762815127 | epot = 0 | etot = 17156.6762815127
843  ekin = 17156.6762815127 | epot = 0 | etot = 17156.6762815127
844  ekin = 17156.6762815127 | epot = 0 | etot = 17156.6762815127
845  ekin = 17156.6762815127 | epot = 0 | etot = 17156.6762815127
846  ekin = 17156.6762815127 | epot = 0 | etot = 17156.6762815127
847  ekin = 17156.6762815127 | epot = 0 | etot = 17156.6762815127
848  ekin = 17156.6762815127 | epot = 0 | etot = 17156.6762815127
849  ekin = 17156.6762815127 | epot = 0 | etot = 17156.6762815127
850  ekin = 17156.6762815127 | epot = 0 | etot = 17156.6762815127
851  ekin = 17156.6762815127 | epot = 0 | etot = 17156.6762815127
852  ekin = 17156.6762815127 | epot = 0 | etot = 17156.6762815127
853  ekin = 17156.6762815127 | epot = 0 | etot = 17156.6762815127
854  ekin = 17156.6762815127 | epot = 0 | etot = 17156.6762815127
855  ekin = 17156.6762815127 | epot = 0 | etot = 17156.6762815127
856  ekin = 17156.6762815127 | epot = 0 | etot = 17156.6762815127
857  ekin = 17156.6762815127 | epot = 0 | etot = 17156.6762815127
858  ekin = 17156.6762815127 | epot = 0 | etot = 17156.6762815127
859  ekin = 17156.6762815127 | epot = 0 | etot = 17156.6762815127
860  ekin = 17156.6762815127 | epot = 0 | etot = 17156.6762815127
861  ekin = 17156.6762815127 | epot = 0 | etot = 17156.6762815127
862  ekin = 17156.6762815127 | epot = 0 | etot = 17156.6762815127
863  ekin = 17156.6762815127 | epot = 0 | etot = 17156.6762815127
864  ekin = 17156.6762815127 | epot = 0 | etot = 17156.6762815127
865  ekin = 17156.6762815127 | epot = 0 | etot = 17156.6762815127
866  ekin = 17156.6762815127 | epot = 0 | etot = 17156.6762815127
867  ekin = 17156.6762815127 | epot = 0 | etot = 17156.6762815127
868  ekin = 17156.6762815127 | epot = 0 | etot = 17156.6762815127
869  ekin = 17156.6762815127 | epot = 0 | etot = 17156.6762815127
870  ekin = 17156.6762815127 | epot = 0 | etot = 17156.6762815127
871  ekin = 17156.6762815127 | epot = 0 | etot = 17156.6762815127
872  ekin = 17156.6762815127 | epot = 0 | etot = 17156.6762815127
873  ekin = 17156.6762815127 | epot = 0 | etot = 17156.6762815127
874  ekin = 17156.6762815127 | epot = 0 | etot = 17156.6762815127
875  ekin = 17156.6762815127 | epot = 0 | etot = 17156.6762815127
876  ekin = 17156.6762815127 | epot = 0 | etot = 17156.6762815127
877  ekin = 17156.6762815127 | epot = 0 | etot = 17156.6762815127
878  ekin = 17156.6762815127 | epot = 0 | etot = 17156.6762815127
879  ekin = 17156.6762815127 | epot = 0 | etot = 17156.6762815127
880  ekin = 17156.6762815127 | epot = 0 | etot = 17156.6762815127
881  ekin = 17156.6762815127 | epot = 0 | etot = 17156.6762815127
882  ekin = 17156.6762815127 | epot = 0 | etot = 17156.6762815127
883  ekin = 17156.6762815127 | epot = 0 | etot = 17156.6762815127
884  ekin = 17156.6762815127 | epot = 0 | etot = 17156.6762815127
885  ekin = 17156.6762815127 | epot = 0 | etot = 17156.6762815127
886  ekin = 17156.6762815127 | epot = 0 | etot = 17156.6762815127
887  ekin = 17156.6762815127 | epot = 0 | etot = 17156.6762815127
888  ekin = 17156.6762815127 | epot = 0 | etot = 17156.6762815127
889  ekin = 17156.6762815127 | epot = 0 | etot = 17156.6762815127
890  ekin = 17156.6762815127 | epot = 0 | etot = 17156.6762815127
891  ekin = 17156.6762815127 | epot = 0 | etot = 17156.6762815127
892  ekin = 17156.6762815127 | epot = 0 | etot = 17156.6762815127
893  ekin = 17156.6762815127 | epot = 0 | etot = 17156.6762815127
894  ekin = 17156.6762815127 | epot = 0 | etot = 17156.6762815127
895  ekin = 17153.9914823809 | epot = 2.17693312603721 | etot = 17156.1684155069
896  ekin = 17148.5960706428 | epot = 7.57326545610655 | etot = 17156.1693360989
897  ekin = 17143.1072058746 | epot = 13.0632160935792 | etot = 17156.1704219681
898  ekin = 17137.5438647175 | epot = 18.6278119154809 | etot = 17156.171676633
899  ekin = 17131.9274320854 | epot = 24.2456688998783 | etot = 17156.1731009853
900  ekin = 17126.2816990746 | epot = 29.8929937974707 | etot = 17156.1746928721
901  ekin = 17120.6328166445 | epot = 35.5436300614988 | etot = 17156.176446706
902  ekin = 17115.0091996392 | epot = 41.1691534841086 | etot = 17156.1783531233
903  ekin = 17109.4413764435 | epot = 46.7390222707629 | etot = 17156.1803987143
904  ekin = 17103.9617806114 | epot = 52.2207852386214 | etot = 17156.18256585
905  ekin = 17098.6044821901 | epot = 57.5803504384314 | etot = 17156.1848326285
906  ekin = 17093.4048581828 | epot = 62.7823147795189 | etot = 17156.1871729624
907  ekin = 17088.3992036113 | epot = 67.790353214082 | etot = 17156.1895568254
908  ekin = 17083.6242869043 | epot = 72.5676637659504 | etot = 17156.1919506703
909  ekin = 17079.1168557691 | epot = 77.0774622526659 | etot = 17156.1943180218
910  ekin = 17074.9131021844 | epot = 81.2835180561075 | etot = 17156.1966202405
911  ekin = 17071.0480975669 | epot = 85.1507198755699 | etot = 17156.1988174425
912  ekin = 17067.5552113558 | epot = 88.6456581932342 | etot = 17156.200869549
913  ekin = 17064.4655280841 | epot = 91.737209346109 | etot = 17156.2027374302
914  ekin = 17061.8072793218 | epot = 94.3971047768653 | etot = 17156.2043840987
915  ekin = 17059.6053075432 | epot = 96.6004683563447 | etot = 17156.2057758995
916  ekin = 17057.8805789112 | epot = 98.3263047308882 | etot = 17156.2068836421
917  ekin = 17056.6497611125 | epot = 99.5579225041602 | etot = 17156.2076836166
918  ekin = 17055.9248807206 | epot = 100.283277721797 | etot = 17156.2081584424
919  ekin = 17055.7130721621 | epot = 100.495225539478 | etot = 17156.2082977016
920  ekin = 17056.0164273074 | epot = 100.191671017477 | etot = 17156.2080983248
921  ekin = 17056.8319511595 | epot = 99.3756135451833 | etot = 17156.2075647047
922  ekin = 17058.1516252664 | epot = 98.0550832665374 | etot = 17156.2067085329
923  ekin = 17059.9625765326 | epot = 96.2429718363055 | etot = 17156.2055483689
924  ekin = 17062.2473452993 | epot = 93.9567636652818 | etot = 17156.2041089646
925  ekin = 17064.9842430856 | epot = 91.2181772973081 | etot = 17156.2024203829
926  ekin = 17068.1477874389 | epot = 88.0527295177657 | etot = 17156.2005169567
927  ekin = 17071.7091990648 | epot = 84.4892370773782 | etot = 17156.1984361421
928  ekin = 17075.6369448911 | epot = 80.559272433162 | etot = 17156.1962173243
929  ekin = 17079.8973100074 | epot = 76.2965906213286 | etot = 17156.1939006288
930  ekin = 17084.4549814913 | epot = 71.7365443002635 | etot = 17156.1915257916
931  ekin = 17089.2736279306 | epot = 66.915503199685 | etot = 17156.1891311303
932  ekin = 17094.3164598615 | epot = 61.8702927889722 | etot = 17156.1867526505
933  ekin = 17099.5467582462 | epot = 56.6376650653523 | etot = 17156.1844233116
934  ekin = 17104.9283603558 | epot = 51.2538121089846 | etot = 17156.1821724648
935  ekin = 17110.4260948589 | epot = 45.753930607568 | etot = 17156.1800254664
936  ekin = 17116.0061604 | epot = 40.171843060727 | etot = 17156.1780034607
937  ekin = 17121.6364443581 | epot = 34.5396789603298 | etot = 17156.1761233184
938  ekin = 17127.2867807033 | epot = 28.8876170106096 | etot = 17156.1743977139
939  ekin = 17132.929147838 | epot = 23.2436874792655 | etot = 17156.1728353173
940  ekin = 17138.53780897 | epot = 17.6336321085623 | etot = 17156.1714410786
941  ekin = 17144.0893988897 | epot = 12.0808176897174 | etot = 17156.1702165795
942  ekin = 17149.562962012 | epot = 6.60619841811696 | etot = 17156.1691604301
943  ekin = 17154.9399472031 | epot = 1.22832148639063 | etot = 17156.1682686895
944  ekin = 17157.6145770195 | epot = 0 | etot = 17157.6145770195
945  ekin = 17157.6145770195 | epot = 0 | etot = 17157.6145770195
946  ekin = 17157.6145770195 | epot = 0 | etot = 17157.6145770195
947  ekin = 17157.6145770195 | epot = 0 | etot = 17157.6145770195
948  ekin = 17157.6145770195 | epot = 0 | etot = 17157.6145770195
949  ekin = 17157.6145770195 | epot = 0 | etot = 17157.6145770195
950  ekin = 17157.6145770195 | epot = 0 | etot = 17157.6145770195
951  ekin = 17157.6145770195 | epot = 0 | etot = 17157.6145770195
952  ekin = 17157.6145770195 | epot = 0 | etot = 17157.6145770195
953  ekin = 17157.6145770195 | epot = 0 | etot = 17157.6145770195
954  ekin = 17157.6145770195 | epot = 0 | etot = 17157.6145770195
955  ekin = 17157.6145770195 | epot = 0 | etot = 17157.6145770195
956  ekin = 17157.6145770195 | epot = 0 | etot = 17157.6145770195
957  ekin = 17157.6145770195 | epot = 0 | etot = 17157.6145770195
958  ekin = 17157.6145770195 | epot = 0 | etot = 17157.6145770195
959  ekin = 17157.6145770195 | epot = 0 | etot = 17157.6145770195
960  ekin = 17157.6145770195 | epot = 0 | etot = 17157.6145770195
961  ekin = 17157.6145770195 | epot = 0 | etot = 17157.6145770195
962  ekin = 17157.6145770195 | epot = 0 | etot = 17157.6145770195
963  ekin = 17157.6145770195 | epot = 0 | etot = 17157.6145770195
964  ekin = 17157.6145770195 | epot = 0 | etot = 17157.6145770195
965  ekin = 17157.6145770195 | epot = 0 | etot = 17157.6145770195
966  ekin = 17157.6145770195 | epot = 0 | etot = 17157.6145770195
967  ekin = 17157.6145770195 | epot = 0 | etot = 17157.6145770195
968  ekin = 17157.6145770195 | epot = 0 | etot = 17157.6145770195
969  ekin = 17157.6145770195 | epot = 0 | etot = 17157.6145770195
970  ekin = 17157.6145770195 | epot = 0 | etot = 17157.6145770195
971  ekin = 17157.6145770195 | epot = 0 | etot = 17157.6145770195
972  ekin = 17157.6145770195 | epot = 0 | etot = 17157.6145770195
973  ekin = 17157.6145770195 | epot = 0 | etot = 17157.6145770195
974  ekin = 17157.6145770195 | epot = 0 | etot = 17157.6145770195
975  ekin = 17157.6145770195 | epot = 0 | etot = 17157.6145770195
976  ekin = 17157.6145770195 | epot = 0 | etot = 17157.6145770195
977  ekin = 17157.6145770195 | epot = 0 | etot = 17157.6145770195
978  ekin = 17157.6145770195 | epot = 0 | etot = 17157.6145770195
979  ekin = 17157.6145770195 | epot = 0 | etot = 17157.6145770195
980  ekin = 17157.6145770195 | epot = 0 | etot = 17157.6145770195
981  ekin = 17157.6145770195 | epot = 0 | etot = 17157.6145770195
982  ekin = 17157.6145770195 | epot = 0 | etot = 17157.6145770195
983  ekin = 17157.6145770195 | epot = 0 | etot = 17157.6145770195
984  ekin = 17157.6145770195 | epot = 0 | etot = 17157.6145770195
985  ekin = 17157.6145770195 | epot = 0 | etot = 17157.6145770195
986  ekin = 17157.6145770195 | epot = 0 | etot = 17157.6145770195
987  ekin = 17157.6145770195 | epot = 0 | etot = 17157.6145770195
988  ekin = 17157.6145770195 | epot = 0 | etot = 17157.6145770195
989  ekin = 17157.6145770195 | epot = 0 | etot = 17157.6145770195
990  ekin = 17157.6145770195 | epot = 0 | etot = 17157.6145770195
991  ekin = 17157.6145770195 | epot = 0 | etot = 17157.6145770195
992  ekin = 17157.6145770195 | epot = 0 | etot = 17157.6145770195
993  ekin = 17157.6145770195 | epot = 0 | etot = 17157.6145770195
994  ekin = 17157.6145770195 | epot = 0 | etot = 17157.6145770195
995  ekin = 17157.6145770195 | epot = 0 | etot = 17157.6145770195
996  ekin = 17157.6145770195 | epot = 0 | etot = 17157.6145770195
997  ekin = 17157.6145770195 | epot = 0 | etot = 17157.6145770195
998  ekin = 17157.6145770195 | epot = 0 | etot = 17157.6145770195
999  ekin = 17157.6145770195 | epot = 0 | etot = 17157.6145770195
1000  ekin = 17157.6145770195 | epot = 0 | etot = 17157.6145770195
1001  ekin = 17157.6145770195 | epot = 0 | etot = 17157.6145770195
1002  ekin = 17157.6145770195 | epot = 0 | etot = 17157.6145770195
1003  ekin = 17157.6145770195 | epot = 0 | etot = 17157.6145770195
1004  ekin = 17157.6145770195 | epot = 0 | etot = 17157.6145770195
1005  ekin = 17157.6145770195 | epot = 0 | etot = 17157.6145770195
1006  ekin = 17157.6145770195 | epot = 0 | etot = 17157.6145770195
1007  ekin = 17157.6145770195 | epot = 0 | etot = 17157.6145770195
1008  ekin = 17157.6145770195 | epot = 0 | etot = 17157.6145770195
1009  ekin = 17157.6145770195 | epot = 0 | etot = 17157.6145770195
1010  ekin = 17157.6145770195 | epot = 0 | etot = 17157.6145770195
1011  ekin = 17157.6145770195 | epot = 0 | etot = 17157.6145770195
1012  ekin = 17157.6145770195 | epot = 0 | etot = 17157.6145770195
1013  ekin = 17157.6145770195 | epot = 0 | etot = 17157.6145770195
1014  ekin = 17157.6145770195 | epot = 0 | etot = 17157.6145770195
1015  ekin = 17157.6145770195 | epot = 0 | etot = 17157.6145770195
1016  ekin = 17157.6145770195 | epot = 0 | etot = 17157.6145770195
1017  ekin = 17157.6145770195 | epot = 0 | etot = 17157.6145770195
1018  ekin = 17157.6145770195 | epot = 0 | etot = 17157.6145770195
1019  ekin = 17157.6145770195 | epot = 0 | etot = 17157.6145770195
1020  ekin = 17157.6145770195 | epot = 0 | etot = 17157.6145770195
1021  ekin = 17157.6145770195 | epot = 0 | etot = 17157.6145770195
1022  ekin = 17157.6145770195 | epot = 0 | etot = 17157.6145770195
1023  ekin = 17157.6145770195 | epot = 0 | etot = 17157.6145770195
1024  ekin = 17157.6145770195 | epot = 0 | etot = 17157.6145770195
1025  ekin = 17157.6145770195 | epot = 0 | etot = 17157.6145770195
1026  ekin = 17157.6145770195 | epot = 0 | etot = 17157.6145770195
1027  ekin = 17157.6145770195 | epot = 0 | etot = 17157.6145770195
1028  ekin = 17157.6145770195 | epot = 0 | etot = 17157.6145770195
1029  ekin = 17157.6145770195 | epot = 0 | etot = 17157.6145770195
1030  ekin = 17157.6145770195 | epot = 0 | etot = 17157.6145770195
1031  ekin = 17157.6145770195 | epot = 0 | etot = 17157.6145770195
1032  ekin = 17157.6145770195 | epot = 0 | etot = 17157.6145770195
1033  ekin = 17157.6145770195 | epot = 0 | etot = 17157.6145770195
1034  ekin = 17157.6145770195 | epot = 0 | etot = 17157.6145770195
1035  ekin = 17157.6145770195 | epot = 0 | etot = 17157.6145770195
1036  ekin = 17157.6145770195 | epot = 0 | etot = 17157.6145770195
1037  ekin = 17157.6145770195 | epot = 0 | etot = 17157.6145770195
1038  ekin = 17157.6145770195 | epot = 0 | etot = 17157.6145770195
1039  ekin = 17157.6145770195 | epot = 0 | etot = 17157.6145770195
1040  ekin = 17157.6145770195 | epot = 0 | etot = 17157.6145770195
1041  ekin = 17157.6145770195 | epot = 0 | etot = 17157.6145770195
1042  ekin = 17157.6145770195 | epot = 0 | etot = 17157.6145770195
1043  ekin = 17157.6145770195 | epot = 0 | etot = 17157.6145770195
1044  ekin = 17157.6145770195 | epot = 0 | etot = 17157.6145770195
1045  ekin = 17157.6145770195 | epot = 0 | etot = 17157.6145770195
1046  ekin = 17157.6145770195 | epot = 0 | etot = 17157.6145770195
1047  ekin = 17157.6145770195 | epot = 0 | etot = 17157.6145770195
1048  ekin = 17157.6145770195 | epot = 0 | etot = 17157.6145770195
1049  ekin = 17157.6145770195 | epot = 0 | etot = 17157.6145770195
1050  ekin = 17157.6145770195 | epot = 0 | etot = 17157.6145770195
1051  ekin = 17157.6145770195 | epot = 0 | etot = 17157.6145770195
1052  ekin = 17157.6145770195 | epot = 0 | etot = 17157.6145770195
1053  ekin = 17157.6145770195 | epot = 0 | etot = 17157.6145770195
1054  ekin = 17157.6145770195 | epot = 0 | etot = 17157.6145770195
1055  ekin = 17157.6145770195 | epot = 0 | etot = 17157.6145770195
1056  ekin = 17157.6145770195 | epot = 0 | etot = 17157.6145770195
1057  ekin = 17157.6145770195 | epot = 0 | etot = 17157.6145770195
1058  ekin = 17157.6145770195 | epot = 0 | etot = 17157.6145770195
1059  ekin = 17157.6145770195 | epot = 0 | etot = 17157.6145770195
1060  ekin = 17157.6145770195 | epot = 0 | etot = 17157.6145770195
1061  ekin = 17157.6145770195 | epot = 0 | etot = 17157.6145770195
1062  ekin = 17157.6145770195 | epot = 0 | etot = 17157.6145770195
1063  ekin = 17157.6145770195 | epot = 0 | etot = 17157.6145770195
1064  ekin = 17157.6145770195 | epot = 0 | etot = 17157.6145770195
1065  ekin = 17157.6145770195 | epot = 0 | etot = 17157.6145770195
1066  ekin = 17157.6145770195 | epot = 0 | etot = 17157.6145770195
1067  ekin = 17157.6145770195 | epot = 0 | etot = 17157.6145770195
1068  ekin = 17157.6145770195 | epot = 0 | etot = 17157.6145770195
1069  ekin = 17157.6145770195 | epot = 0 | etot = 17157.6145770195
1070  ekin = 17157.6145770195 | epot = 0 | etot = 17157.6145770195
1071  ekin = 17157.6145770195 | epot = 0 | etot = 17157.6145770195
1072  ekin = 17157.6145770195 | epot = 0 | etot = 17157.6145770195
1073  ekin = 17157.6145770195 | epot = 0 | etot = 17157.6145770195
1074  ekin = 17157.6145770195 | epot = 0 | etot = 17157.6145770195
1075  ekin = 17157.6145770195 | epot = 0 | etot = 17157.6145770195
1076  ekin = 17157.6145770195 | epot = 0 | etot = 17157.6145770195
1077  ekin = 17157.6145770195 | epot = 0 | etot = 17157.6145770195
1078  ekin = 17157.6145770195 | epot = 0 | etot = 17157.6145770195
1079  ekin = 17157.6145770195 | epot = 0 | etot = 17157.6145770195
1080  ekin = 17157.6145770195 | epot = 0 | etot = 17157.6145770195
1081  ekin = 17157.6145770195 | epot = 0 | etot = 17157.6145770195
1082  ekin = 17157.6145770195 | epot = 0 | etot = 17157.6145770195
1083  ekin = 17157.6145770195 | epot = 0 | etot = 17157.6145770195
1084  ekin = 17157.6145770195 | epot = 0 | etot = 17157.6145770195
1085  ekin = 17157.6145770195 | epot = 0 | etot = 17157.6145770195
1086  ekin = 17157.6145770195 | epot = 0 | etot = 17157.6145770195
[...]
9732  ekin = 17038.9149638357 | epot = 111.158894411582 | etot = 17150.0738582473
9733  ekin = 17041.9269193102 | epot = 107.916901583537 | etot = 17149.8438208937
9734  ekin = 17044.7149648562 | epot = 105.12710862473 | etot = 17149.8420734809
9735  ekin = 17048.0068135198 | epot = 101.833365272728 | etot = 17149.8401787926
9736  ekin = 17051.7714601841 | epot = 98.0667126883945 | etot = 17149.8381728725
9737  ekin = 17055.975877232 | epot = 93.8602139387647 | etot = 17149.8360911708
9738  ekin = 17060.585558016 | epot = 89.2484096395403 | etot = 17149.8339676555
9739  ekin = 17065.5650409353 | epot = 84.2667931317352 | etot = 17149.831834067
9740  ekin = 17070.8784028602 | epot = 78.9513164696603 | etot = 17149.8297193298
9741  ekin = 17076.4897129069 | epot = 73.3379362209195 | etot = 17149.8276491278
9742  ekin = 17082.3634399305 | epot = 67.4622057093112 | etot = 17149.8256456399
9743  ekin = 17088.4648094241 | epot = 61.3589179998006 | etot = 17149.8237274239
9744  ekin = 17094.7601076926 | epot = 55.0618017412496 | etot = 17149.8219094338
9745  ekin = 17101.2169331157 | epot = 48.6032700318379 | etot = 17149.8202031475
9746  ekin = 17107.8043959728 | epot = 42.0142208115398 | etot = 17149.8186167844
9747  ekin = 17114.4932696417 | epot = 35.3238859469179 | etot = 17149.8171555886
9748  ekin = 17121.2560969929 | epot = 28.5597251638844 | etot = 17149.8158221568
9749  ekin = 17128.0672564973 | epot = 21.7473602920478 | etot = 17149.8146167894
9750  ekin = 17134.9029929652 | epot = 14.9105448834459 | etot = 17149.8135378487
9751  ekin = 17141.7414179875 | epot = 8.07116412160863 | etot = 17149.8125821091
9752  ekin = 17148.5624850871 | epot = 1.24926000138778 | etot = 17149.8117450885
9753  ekin = 17151.9964329089 | epot = 0 | etot = 17151.9964329089
9754  ekin = 17151.9964329089 | epot = 0 | etot = 17151.9964329089
9755  ekin = 17151.9964329089 | epot = 0 | etot = 17151.9964329089
9756  ekin = 17151.9964329089 | epot = 0 | etot = 17151.9964329089
9757  ekin = 17151.9964329089 | epot = 0 | etot = 17151.9964329089
9758  ekin = 17151.9964329089 | epot = 0 | etot = 17151.9964329089
9759  ekin = 17151.9964329089 | epot = 0 | etot = 17151.9964329089
9760  ekin = 17151.9964329089 | epot = 0 | etot = 17151.9964329089
9761  ekin = 17151.9964329089 | epot = 0 | etot = 17151.9964329089
9762  ekin = 17151.9964329089 | epot = 0 | etot = 17151.9964329089
9763  ekin = 17151.9964329089 | epot = 0 | etot = 17151.9964329089
9764  ekin = 17151.9964329089 | epot = 0 | etot = 17151.9964329089
9765  ekin = 17151.9964329089 | epot = 0 | etot = 17151.9964329089
9766  ekin = 17151.9964329089 | epot = 0 | etot = 17151.9964329089
9767  ekin = 17151.9964329089 | epot = 0 | etot = 17151.9964329089
9768  ekin = 17151.9964329089 | epot = 0 | etot = 17151.9964329089
9769  ekin = 17151.9964329089 | epot = 0 | etot = 17151.9964329089
9770  ekin = 17151.9964329089 | epot = 0 | etot = 17151.9964329089
9771  ekin = 17151.9964329089 | epot = 0 | etot = 17151.9964329089
9772  ekin = 17151.9964329089 | epot = 0 | etot = 17151.9964329089
9773  ekin = 17151.9964329089 | epot = 0 | etot = 17151.9964329089
9774  ekin = 17151.9964329089 | epot = 0 | etot = 17151.9964329089
9775  ekin = 17151.9964329089 | epot = 0 | etot = 17151.9964329089
9776  ekin = 17151.9964329089 | epot = 0 | etot = 17151.9964329089
9777  ekin = 17151.9964329089 | epot = 0 | etot = 17151.9964329089
9778  ekin = 17151.9964329089 | epot = 0 | etot = 17151.9964329089
9779  ekin = 17151.9964329089 | epot = 0 | etot = 17151.9964329089
9780  ekin = 17151.9964329089 | epot = 0 | etot = 17151.9964329089
9781  ekin = 17151.9964329089 | epot = 0 | etot = 17151.9964329089
9782  ekin = 17151.9964329089 | epot = 0 | etot = 17151.9964329089
9783  ekin = 17151.9964329089 | epot = 0 | etot = 17151.9964329089
9784  ekin = 17151.9964329089 | epot = 0 | etot = 17151.9964329089
9785  ekin = 17151.9964329089 | epot = 0 | etot = 17151.9964329089
9786  ekin = 17151.9964329089 | epot = 0 | etot = 17151.9964329089
9787  ekin = 17151.9964329089 | epot = 0 | etot = 17151.9964329089
9788  ekin = 17151.9964329089 | epot = 0 | etot = 17151.9964329089
9789  ekin = 17151.9964329089 | epot = 0 | etot = 17151.9964329089
9790  ekin = 17151.9964329089 | epot = 0 | etot = 17151.9964329089
9791  ekin = 17151.9964329089 | epot = 0 | etot = 17151.9964329089
9792  ekin = 17151.9964329089 | epot = 0 | etot = 17151.9964329089
9793  ekin = 17151.9964329089 | epot = 0 | etot = 17151.9964329089
9794  ekin = 17151.9964329089 | epot = 0 | etot = 17151.9964329089
9795  ekin = 17151.9964329089 | epot = 0 | etot = 17151.9964329089
9796  ekin = 17151.9964329089 | epot = 0 | etot = 17151.9964329089
9797  ekin = 17151.9964329089 | epot = 0 | etot = 17151.9964329089
9798  ekin = 17151.9964329089 | epot = 0 | etot = 17151.9964329089
9799  ekin = 17151.9964329089 | epot = 0 | etot = 17151.9964329089
9800  ekin = 17151.9964329089 | epot = 0 | etot = 17151.9964329089
9801  ekin = 17151.9964329089 | epot = 0 | etot = 17151.9964329089
9802  ekin = 17151.9964329089 | epot = 0 | etot = 17151.9964329089
9803  ekin = 17151.9964329089 | epot = 0 | etot = 17151.9964329089
9804  ekin = 17151.9964329089 | epot = 0 | etot = 17151.9964329089
9805  ekin = 17151.9964329089 | epot = 0 | etot = 17151.9964329089
9806  ekin = 17151.9964329089 | epot = 0 | etot = 17151.9964329089
9807  ekin = 17151.9964329089 | epot = 0 | etot = 17151.9964329089
9808  ekin = 17151.9964329089 | epot = 0 | etot = 17151.9964329089
9809  ekin = 17151.9964329089 | epot = 0 | etot = 17151.9964329089
9810  ekin = 17151.9964329089 | epot = 0 | etot = 17151.9964329089
9811  ekin = 17151.9964329089 | epot = 0 | etot = 17151.9964329089
9812  ekin = 17151.9964329089 | epot = 0 | etot = 17151.9964329089
9813  ekin = 17151.9964329089 | epot = 0 | etot = 17151.9964329089
9814  ekin = 17151.9964329089 | epot = 0 | etot = 17151.9964329089
9815  ekin = 17151.9964329089 | epot = 0 | etot = 17151.9964329089
9816  ekin = 17151.9964329089 | epot = 0 | etot = 17151.9964329089
9817  ekin = 17151.9964329089 | epot = 0 | etot = 17151.9964329089
9818  ekin = 17151.9964329089 | epot = 0 | etot = 17151.9964329089
9819  ekin = 17151.9964329089 | epot = 0 | etot = 17151.9964329089
9820  ekin = 17151.9964329089 | epot = 0 | etot = 17151.9964329089
9821  ekin = 17151.9964329089 | epot = 0 | etot = 17151.9964329089
9822  ekin = 17151.9964329089 | epot = 0 | etot = 17151.9964329089
9823  ekin = 17151.9964329089 | epot = 0 | etot = 17151.9964329089
9824  ekin = 17151.9964329089 | epot = 0 | etot = 17151.9964329089
9825  ekin = 17151.9964329089 | epot = 0 | etot = 17151.9964329089
9826  ekin = 17151.9964329089 | epot = 0 | etot = 17151.9964329089
9827  ekin = 17151.9964329089 | epot = 0 | etot = 17151.9964329089
9828  ekin = 17151.9964329089 | epot = 0 | etot = 17151.9964329089
9829  ekin = 17151.9964329089 | epot = 0 | etot = 17151.9964329089
9830  ekin = 17151.9964329089 | epot = 0 | etot = 17151.9964329089
9831  ekin = 17151.9964329089 | epot = 0 | etot = 17151.9964329089
9832  ekin = 17151.9964329089 | epot = 0 | etot = 17151.9964329089
9833  ekin = 17151.9964329089 | epot = 0 | etot = 17151.9964329089
9834  ekin = 17151.9964329089 | epot = 0 | etot = 17151.9964329089
9835  ekin = 17151.9964329089 | epot = 0 | etot = 17151.9964329089
9836  ekin = 17151.9964329089 | epot = 0 | etot = 17151.9964329089
9837  ekin = 17151.9964329089 | epot = 0 | etot = 17151.9964329089
9838  ekin = 17151.9964329089 | epot = 0 | etot = 17151.9964329089
9839  ekin = 17151.9964329089 | epot = 0 | etot = 17151.9964329089
9840  ekin = 17151.9964329089 | epot = 0 | etot = 17151.9964329089
9841  ekin = 17151.9964329089 | epot = 0 | etot = 17151.9964329089
9842  ekin = 17151.9964329089 | epot = 0 | etot = 17151.9964329089
9843  ekin = 17151.9964329089 | epot = 0 | etot = 17151.9964329089
9844  ekin = 17151.9964329089 | epot = 0 | etot = 17151.9964329089
9845  ekin = 17151.9964329089 | epot = 0 | etot = 17151.9964329089
9846  ekin = 17151.9964329089 | epot = 0 | etot = 17151.9964329089
9847  ekin = 17151.9964329089 | epot = 0 | etot = 17151.9964329089
9848  ekin = 17151.9964329089 | epot = 0 | etot = 17151.9964329089
9849  ekin = 17151.9964329089 | epot = 0 | etot = 17151.9964329089
9850  ekin = 17151.9964329089 | epot = 0 | etot = 17151.9964329089
9851  ekin = 17151.9964329089 | epot = 0 | etot = 17151.9964329089
9852  ekin = 17151.9964329089 | epot = 0 | etot = 17151.9964329089
9853  ekin = 17151.9964329089 | epot = 0 | etot = 17151.9964329089
9854  ekin = 17151.9964329089 | epot = 0 | etot = 17151.9964329089
9855  ekin = 17151.9964329089 | epot = 0 | etot = 17151.9964329089
9856  ekin = 17151.9964329089 | epot = 0 | etot = 17151.9964329089
9857  ekin = 17151.9964329089 | epot = 0 | etot = 17151.9964329089
9858  ekin = 17151.9964329089 | epot = 0 | etot = 17151.9964329089
9859  ekin = 17151.9964329089 | epot = 0 | etot = 17151.9964329089
9860  ekin = 17151.9964329089 | epot = 0 | etot = 17151.9964329089
9861  ekin = 17151.9964329089 | epot = 0 | etot = 17151.9964329089
9862  ekin = 17151.9964329089 | epot = 0 | etot = 17151.9964329089
9863  ekin = 17151.9964329089 | epot = 0 | etot = 17151.9964329089
9864  ekin = 17151.9964329089 | epot = 0 | etot = 17151.9964329089
9865  ekin = 17151.9964329089 | epot = 0 | etot = 17151.9964329089
9866  ekin = 17151.9964329089 | epot = 0 | etot = 17151.9964329089
9867  ekin = 17151.9964329089 | epot = 0 | etot = 17151.9964329089
9868  ekin = 17151.9964329089 | epot = 0 | etot = 17151.9964329089
9869  ekin = 17151.9964329089 | epot = 0 | etot = 17151.9964329089
9870  ekin = 17151.9964329089 | epot = 0 | etot = 17151.9964329089
9871  ekin = 17151.9964329089 | epot = 0 | etot = 17151.9964329089
9872  ekin = 17151.9964329089 | epot = 0 | etot = 17151.9964329089
9873  ekin = 17151.9964329089 | epot = 0 | etot = 17151.9964329089
9874  ekin = 17151.9964329089 | epot = 0 | etot = 17151.9964329089
9875  ekin = 17151.9964329089 | epot = 0 | etot = 17151.9964329089
9876  ekin = 17151.9964329089 | epot = 0 | etot = 17151.9964329089
9877  ekin = 17151.9964329089 | epot = 0 | etot = 17151.9964329089
9878  ekin = 17151.9964329089 | epot = 0 | etot = 17151.9964329089
9879  ekin = 17151.9964329089 | epot = 0 | etot = 17151.9964329089
9880  ekin = 17151.9964329089 | epot = 0 | etot = 17151.9964329089
9881  ekin = 17151.9964329089 | epot = 0 | etot = 17151.9964329089
9882  ekin = 17151.9964329089 | epot = 0 | etot = 17151.9964329089
9883  ekin = 17151.9964329089 | epot = 0 | etot = 17151.9964329089
9884  ekin = 17151.9964329089 | epot = 0 | etot = 17151.9964329089
9885  ekin = 17151.9964329089 | epot = 0 | etot = 17151.9964329089
9886  ekin = 17151.9964329089 | epot = 0 | etot = 17151.9964329089
9887  ekin = 17151.9964329089 | epot = 0 | etot = 17151.9964329089
9888  ekin = 17151.9964329089 | epot = 0 | etot = 17151.9964329089
9889  ekin = 17151.9964329089 | epot = 0 | etot = 17151.9964329089
9890  ekin = 17151.9964329089 | epot = 0 | etot = 17151.9964329089
9891  ekin = 17151.9964329089 | epot = 0 | etot = 17151.9964329089
9892  ekin = 17151.9964329089 | epot = 0 | etot = 17151.9964329089
9893  ekin = 17151.9964329089 | epot = 0 | etot = 17151.9964329089
9894  ekin = 17151.9964329089 | epot = 0 | etot = 17151.9964329089
9895  ekin = 17151.9964329089 | epot = 0 | etot = 17151.9964329089
9896  ekin = 17151.9964329089 | epot = 0 | etot = 17151.9964329089
9897  ekin = 17151.9964329089 | epot = 0 | etot = 17151.9964329089
9898  ekin = 17151.9964329089 | epot = 0 | etot = 17151.9964329089
9899  ekin = 17151.9964329089 | epot = 0 | etot = 17151.9964329089
9900  ekin = 17151.9964329089 | epot = 0 | etot = 17151.9964329089
9901  ekin = 17151.9964329089 | epot = 0 | etot = 17151.9964329089
9902  ekin = 17151.9964329089 | epot = 0 | etot = 17151.9964329089
9903  ekin = 17151.9964329089 | epot = 0 | etot = 17151.9964329089
9904  ekin = 17151.9964329089 | epot = 0 | etot = 17151.9964329089
9905  ekin = 17151.9964329089 | epot = 0 | etot = 17151.9964329089
9906  ekin = 17151.9964329089 | epot = 0 | etot = 17151.9964329089
9907  ekin = 17151.9964329089 | epot = 0 | etot = 17151.9964329089
9908  ekin = 17151.9964329089 | epot = 0 | etot = 17151.9964329089
9909  ekin = 17151.9964329089 | epot = 0 | etot = 17151.9964329089
9910  ekin = 17151.9964329089 | epot = 0 | etot = 17151.9964329089
9911  ekin = 17151.9964329089 | epot = 0 | etot = 17151.9964329089
9912  ekin = 17151.9964329089 | epot = 0 | etot = 17151.9964329089
9913  ekin = 17151.9964329089 | epot = 0 | etot = 17151.9964329089
9914  ekin = 17151.9964329089 | epot = 0 | etot = 17151.9964329089
9915  ekin = 17151.9964329089 | epot = 0 | etot = 17151.9964329089
9916  ekin = 17151.9964329089 | epot = 0 | etot = 17151.9964329089
9917  ekin = 17151.9964329089 | epot = 0 | etot = 17151.9964329089
9918  ekin = 17151.9964329089 | epot = 0 | etot = 17151.9964329089
9919  ekin = 17151.9964329089 | epot = 0 | etot = 17151.9964329089
9920  ekin = 17151.9964329089 | epot = 0 | etot = 17151.9964329089
9921  ekin = 17151.9964329089 | epot = 0 | etot = 17151.9964329089
9922  ekin = 17151.9964329089 | epot = 0 | etot = 17151.9964329089
9923  ekin = 17151.9964329089 | epot = 0 | etot = 17151.9964329089
9924  ekin = 17151.9964329089 | epot = 0 | etot = 17151.9964329089
9925  ekin = 17151.9964329089 | epot = 0 | etot = 17151.9964329089
9926  ekin = 17151.9964329089 | epot = 0 | etot = 17151.9964329089
9927  ekin = 17151.9964329089 | epot = 0 | etot = 17151.9964329089
9928  ekin = 17151.9964329089 | epot = 0 | etot = 17151.9964329089
9929  ekin = 17151.9964329089 | epot = 0 | etot = 17151.9964329089
9930  ekin = 17151.9964329089 | epot = 0 | etot = 17151.9964329089
9931  ekin = 17151.9964329089 | epot = 0 | etot = 17151.9964329089
9932  ekin = 17151.9964329089 | epot = 0 | etot = 17151.9964329089
9933  ekin = 17151.9964329089 | epot = 0 | etot = 17151.9964329089
9934  ekin = 17151.9964329089 | epot = 0 | etot = 17151.9964329089
9935  ekin = 17151.9964329089 | epot = 0 | etot = 17151.9964329089
9936  ekin = 17151.9964329089 | epot = 0 | etot = 17151.9964329089
9937  ekin = 17151.9964329089 | epot = 0 | etot = 17151.9964329089
9938  ekin = 17151.9964329089 | epot = 0 | etot = 17151.9964329089
9939  ekin = 17151.9964329089 | epot = 0 | etot = 17151.9964329089
9940  ekin = 17151.9964329089 | epot = 0 | etot = 17151.9964329089
9941  ekin = 17151.9964329089 | epot = 0 | etot = 17151.9964329089
9942  ekin = 17151.9964329089 | epot = 0 | etot = 17151.9964329089
9943  ekin = 17151.9964329089 | epot = 0 | etot = 17151.9964329089
9944  ekin = 17151.9964329089 | epot = 0 | etot = 17151.9964329089
9945  ekin = 17151.9964329089 | epot = 0 | etot = 17151.9964329089
9946  ekin = 17151.9964329089 | epot = 0 | etot = 17151.9964329089
9947  ekin = 17151.9964329089 | epot = 0 | etot = 17151.9964329089
9948  ekin = 17151.9964329089 | epot = 0 | etot = 17151.9964329089
9949  ekin = 17151.9964329089 | epot = 0 | etot = 17151.9964329089
9950  ekin = 17151.9964329089 | epot = 0 | etot = 17151.9964329089
9951  ekin = 17151.9964329089 | epot = 0 | etot = 17151.9964329089
9952  ekin = 17151.9964329089 | epot = 0 | etot = 17151.9964329089
9953  ekin = 17151.9964329089 | epot = 0 | etot = 17151.9964329089
9954  ekin = 17151.9964329089 | epot = 0 | etot = 17151.9964329089
9955  ekin = 17151.9964329089 | epot = 0 | etot = 17151.9964329089
9956  ekin = 17151.9964329089 | epot = 0 | etot = 17151.9964329089
9957  ekin = 17151.9964329089 | epot = 0 | etot = 17151.9964329089
9958  ekin = 17151.9964329089 | epot = 0 | etot = 17151.9964329089
9959  ekin = 17151.2608949358 | epot = 0.29587614247572 | etot = 17151.5567710783
9960  ekin = 17149.8706293208 | epot = 1.68655183497316 | etot = 17151.5571811558
9961  ekin = 17148.5942217671 | epot = 2.96334380771725 | etot = 17151.5575655748
9962  ekin = 17147.4375571083 | epot = 4.12036338150502 | etot = 17151.5579204898
9963  ekin = 17146.4060604308 | epot = 5.15218183235709 | etot = 17151.5582422632
9964  ekin = 17145.5046438585 | epot = 6.05388366763438 | etot = 17151.5585275262
9965  ekin = 17144.7376573119 | epot = 6.8211159250116 | etot = 17151.5587732369
9966  ekin = 17144.1088440782 | epot = 7.45013265616126 | etot = 17151.5589767344
9967  ekin = 17143.6213019667 | epot = 7.93783381969961 | etot = 17151.5591357864
9968  ekin = 17143.2774507396 | epot = 8.28179789109572 | etot = 17151.5592486306
9969  ekin = 17143.0790064084 | epot = 8.48030759911359 | etot = 17151.5593140075
9970  ekin = 17143.026962867 | epot = 8.53236831657409 | etot = 17151.5593311835
9971  ekin = 17143.1215812011 | epot = 8.43771876467115 | etot = 17151.5592999658
9972  ekin = 17143.3623868738 | epot = 8.19683383126561 | etot = 17151.5592207051
9973  ekin = 17143.7481748389 | epot = 7.81091945046093 | etot = 17151.5590942893
9974  ekin = 17144.2770224879 | epot = 7.28189963914697 | etot = 17151.5589221271
9975  ekin = 17144.946310189 | epot = 6.61239593187875 | etot = 17151.5587061209
9976  ekin = 17145.7527490378 | epot = 5.80569959418014 | etot = 17151.558448632
9977  ekin = 17146.692415315 | epot = 4.86573712233837 | etot = 17151.5581524373
9978  ekin = 17147.7607910279 | epot = 3.79702965149734 | etot = 17151.5578206794
9979  ekin = 17148.9528098206 | epot = 2.60464699052591 | etot = 17151.5574568111
9980  ekin = 17150.2629074575 | epot = 1.29415707946556 | etot = 17151.557064537
9981  ekin = 17150.9597085724 | epot = 0 | etot = 17150.9597085724
9982  ekin = 17150.9597085724 | epot = 0 | etot = 17150.9597085724
9983  ekin = 17150.9597085724 | epot = 0 | etot = 17150.9597085724
9984  ekin = 17150.9597085724 | epot = 0 | etot = 17150.9597085724
9985  ekin = 17150.9597085724 | epot = 0 | etot = 17150.9597085724
9986  ekin = 17150.9597085724 | epot = 0 | etot = 17150.9597085724
9987  ekin = 17150.9597085724 | epot = 0 | etot = 17150.9597085724
9988  ekin = 17150.9597085724 | epot = 0 | etot = 17150.9597085724
9989  ekin = 17150.9597085724 | epot = 0 | etot = 17150.9597085724
9990  ekin = 17150.9597085724 | epot = 0 | etot = 17150.9597085724
9991  ekin = 17150.9597085724 | epot = 0 | etot = 17150.9597085724
9992  ekin = 17150.9597085724 | epot = 0 | etot = 17150.9597085724
9993  ekin = 17150.9597085724 | epot = 0 | etot = 17150.9597085724
9994  ekin = 17150.9597085724 | epot = 0 | etot = 17150.9597085724
9995  ekin = 17150.9597085724 | epot = 0 | etot = 17150.9597085724
9996  ekin = 17150.9597085724 | epot = 0 | etot = 17150.9597085724
9997  ekin = 17150.9597085724 | epot = 0 | etot = 17150.9597085724
9998  ekin = 17150.9597085724 | epot = 0 | etot = 17150.9597085724
9999  ekin = 17150.9597085724 | epot = 0 | etot = 17150.9597085724
10000  ekin = 17150.9597085724 | epot = 0 | etot = 17150.9597085724
     10000   1270.4415      0              0              1715.096       57.169866    
Loop time of 0.410638 on 2 procs for 10000 steps with 10 atoms

Performance: 2104043.190 tau/day, 24352.352 timesteps/s, 243.524 katom-step/s
88.6% CPU use with 2 MPI tasks x 1 OpenMP threads

MPI task timing breakdown:
Section |  min time  |  avg time  |  max time  |%varavg| %total
---------------------------------------------------------------
Pair    | 0.025279   | 0.026844   | 0.028409   |   1.0 |  6.54
Neigh   | 0.0012356  | 0.0012876  | 0.0013396  |   0.1 |  0.31
Comm    | 0.10624    | 0.10769    | 0.10915    |   0.4 | 26.23
Output  | 0.11979    | 0.12962    | 0.13944    |   2.7 | 31.56
Modify  | 0.076369   | 0.089311   | 0.10225    |   4.3 | 21.75
Other   |            | 0.05589    |            |       | 13.61

Nlocal:              5 ave           7 max           3 min
Histogram: 1 0 0 0 0 0 0 0 0 1
Nghost:             45 ave          47 max          43 min
Histogram: 1 0 0 0 0 0 0 0 0 1
Neighs:             11 ave          21 max           1 min
Histogram: 1 0 0 0 0 0 0 0 0 1

Total # of neighbors = 22
Ave neighs/atom = 2.2
Neighbor list builds = 170
Dangerous builds = 0

write_data data_out.* nocoeff
System init for write_data ...
Generated 0 of 0 mixed pair_coeff terms from geometric mixing rule

Total wall time: 0:00:00
