LAMMPS (27 Jun 2024)
Reading data file ...
  orthogonal box = (2 -5 -8) to (9 1 4)
  1 by 1 by 2 MPI processor grid
  reading atoms ...
  7 atoms
  reading velocities ...
  7 velocities
  7 ellipsoids
  read_data CPU = 0.001 seconds
7 atoms in group all
7 atoms in group polymer

CITE-CITE-CITE-CITE-CITE-CITE-CITE-CITE-CITE-CITE-CITE-CITE-CITE

Your simulation uses code contributions which should be cited:
- Type Label Framework: https://doi.org/10.1021/acs.jpcb.3c08419
The log file lists these citations in BibTeX format.

CITE-CITE-CITE-CITE-CITE-CITE-CITE-CITE-CITE-CITE-CITE-CITE-CITE

Generated 0 of 0 mixed pair_coeff terms from geometric mixing rule
Neighbor list info ...
  update: every = 1 steps, delay = 0 steps, check = yes
  max neighbors/atom: 2000, page size: 100000
  master list distance cutoff = 2.6224615
  ghost atom cutoff = 2.6224615
  binsize = 1.3112308, bins = 6 5 10
  1 neighbor lists, perpetual/occasional/extra = 1 0 0
  (1) pair lj/cut, perpetual
      attributes: half, newton on
      pair build: half/bin/atomonly/newton
      stencil: half/bin/3d
      bin: standard
Setting up Verlet run ...
  Unit style    : lj
  Current step  : 0
  Time step     : 0.001
0  ekin = 10937.4995110569 | epot = 2.00025182432279 | etot = 10939.4997628812
Per MPI rank memory allocation (min/avg/max) = 4.748 | 4.748 | 4.748 Mbytes
   Step          Temp          E_pair         E_mol          TotEng         Press     
         0   1215.2777      0.28575026     0              1562.7857      14.505243    
1  ekin = 10937.4995299335 | epot = 2.0002329476696 | etot = 10939.4997628811
2  ekin = 10937.4995865613 | epot = 2.00017631947348 | etot = 10939.4997628808
3  ekin = 10937.4996809352 | epot = 2.00008194502439 | etot = 10939.4997628802
4  ekin = 10937.4998130463 | epot = 1.99994983313792 | etot = 10939.4997628795
5  ekin = 10937.4999828823 | epot = 1.99977999615384 | etot = 10939.4997628785
6  ekin = 10937.5001904273 | epot = 1.9995724499338 | etot = 10939.4997628773
7  ekin = 10937.500435662 | epot = 1.99932721385878 | etot = 10939.4997628758
8  ekin = 10937.5007185634 | epot = 1.99904431082561 | etot = 10939.4997628742
9  ekin = 10937.5010391051 | epot = 1.99872376724309 | etot = 10939.4997628723
10  ekin = 10937.5013972572 | epot = 1.99836561302742 | etot = 10939.4997628702
11  ekin = 10937.5017929863 | epot = 1.99796988159701 | etot = 10939.4997628679
12  ekin = 10937.5022262555 | epot = 1.99753660986678 | etot = 10939.4997628654
13  ekin = 10937.5026970244 | epot = 1.99706583824177 | etot = 10939.4997628627
14  ekin = 10937.5032052491 | epot = 1.99655761061016 | etot = 10939.4997628597
15  ekin = 10937.5037508822 | epot = 1.99601197433577 | etot = 10939.4997628565
16  ekin = 10937.5043338729 | epot = 1.99542898024987 | etot = 10939.4997628531
17  ekin = 10937.5049541669 | epot = 1.99480868264252 | etot = 10939.4997628495
18  ekin = 10937.5056117064 | epot = 1.99415113925312 | etot = 10939.4997628457
19  ekin = 10937.5063064304 | epot = 1.99345641126064 | etot = 10939.4997628417
20  ekin = 10937.5070382741 | epot = 1.99272456327302 | etot = 10939.4997628374
21  ekin = 10937.5078071696 | epot = 1.9919556633162 | etot = 10939.499762833
22  ekin = 10937.5086130455 | epot = 1.99114978282239 | etot = 10939.4997628283
23  ekin = 10937.5094558268 | epot = 1.99030699661792 | etot = 10939.4997628234
24  ekin = 10937.5103354354 | epot = 1.98942738291039 | etot = 10939.4997628183
25  ekin = 10937.5112517897 | epot = 1.98851102327542 | etot = 10939.499762813
26  ekin = 10937.5122048048 | epot = 1.98755800264267 | etot = 10939.4997628075
27  ekin = 10937.5131943925 | epot = 1.98656840928139 | etot = 10939.4997628018
28  ekin = 10937.514220461 | epot = 1.98554233478544 | etot = 10939.4997627958
29  ekin = 10937.5152829156 | epot = 1.98447987405769 | etot = 10939.4997627897
30  ekin = 10937.5163816581 | epot = 1.98338112529395 | etot = 10939.4997627834
31  ekin = 10937.5175165869 | epot = 1.98224618996634 | etot = 10939.4997627768
32  ekin = 10937.5186875973 | epot = 1.98107517280606 | etot = 10939.4997627701
33  ekin = 10937.5198945814 | epot = 1.9798681817858 | etot = 10939.4997627632
34  ekin = 10937.5211374279 | epot = 1.97862532810144 | etot = 10939.499762756
35  ekin = 10937.5224160225 | epot = 1.97734672615334 | etot = 10939.4997627487
36  ekin = 10937.5237302476 | epot = 1.97603249352711 | etot = 10939.4997627411
37  ekin = 10937.5250799824 | epot = 1.97468275097384 | etot = 10939.4997627334
38  ekin = 10937.5264651031 | epot = 1.97329762238992 | etot = 10939.4997627255
39  ekin = 10937.5278854826 | epot = 1.97187723479624 | etot = 10939.4997627174
40  ekin = 10937.5293409907 | epot = 1.97042171831699 | etot = 10939.4997627091
41  ekin = 10937.5308314944 | epot = 1.96893120615794 | etot = 10939.4997627006
42  ekin = 10937.5323568573 | epot = 1.96740583458435 | etot = 10939.4997626919
43  ekin = 10937.5339169401 | epot = 1.9658457428982 | etot = 10939.499762683
44  ekin = 10937.5355116005 | epot = 1.96425107341521 | etot = 10939.4997626739
45  ekin = 10937.5371406933 | epot = 1.9626219714412 | etot = 10939.4997626647
46  ekin = 10937.53880407 | epot = 1.9609585852482 | etot = 10939.4997626553
47  ekin = 10937.5405015796 | epot = 1.95926106604986 | etot = 10939.4997626457
48  ekin = 10937.5422330679 | epot = 1.95752956797674 | etot = 10939.4997626359
49  ekin = 10937.5439983779 | epot = 1.95576424805089 | etot = 10939.4997626259
50  ekin = 10937.5457973496 | epot = 1.95396526616028 | etot = 10939.4997626158
51  ekin = 10937.5476298204 | epot = 1.95213278503252 | etot = 10939.4997626055
52  ekin = 10937.5494956248 | epot = 1.95026697020848 | etot = 10939.499762595
53  ekin = 10937.5513945943 | epot = 1.9483679900153 | etot = 10939.4997625843
54  ekin = 10937.553326558 | epot = 1.94643601553911 | etot = 10939.4997625735
55  ekin = 10937.5552913419 | epot = 1.94447122059735 | etot = 10939.4997625625
56  ekin = 10937.5572887697 | epot = 1.94247378171077 | etot = 10939.4997625514
57  ekin = 10937.559318662 | epot = 1.94044387807491 | etot = 10939.4997625401
58  ekin = 10937.561380837 | epot = 1.93838169153143 | etot = 10939.4997625286
59  ekin = 10937.5634751104 | epot = 1.93628740653897 | etot = 10939.4997625169
60  ekin = 10937.565601295 | epot = 1.93416121014371 | etot = 10939.4997625051
61  ekin = 10937.5677592012 | epot = 1.93200329194956 | etot = 10939.4997624932
62  ekin = 10937.569948637 | epot = 1.92981384408809 | etot = 10939.4997624811
63  ekin = 10937.5721694076 | epot = 1.9275930611881 | etot = 10939.4997624688
64  ekin = 10937.5744213161 | epot = 1.92534114034494 | etot = 10939.4997624564
65  ekin = 10937.5767041628 | epot = 1.92305828108943 | etot = 10939.4997624439
66  ekin = 10937.5790177458 | epot = 1.92074468535662 | etot = 10939.4997624312
67  ekin = 10937.5813618609 | epot = 1.91840055745417 | etot = 10939.4997624183
68  ekin = 10937.5837363013 | epot = 1.91602610403053 | etot = 10939.4997624054
69  ekin = 10937.5861408582 | epot = 1.91362153404279 | etot = 10939.4997623922
70  ekin = 10937.5885753203 | epot = 1.91118705872438 | etot = 10939.499762379
71  ekin = 10937.591039474 | epot = 1.90872289155241 | etot = 10939.4997623656
72  ekin = 10937.5935331038 | epot = 1.90622924821482 | etot = 10939.4997623521
73  ekin = 10937.5960559918 | epot = 1.90370634657735 | etot = 10939.4997623384
74  ekin = 10937.598607918 | epot = 1.90115440665023 | etot = 10939.4997623246
i (nlocal_bonus - 1): 4, j (ellipsoid[i]): 4
ellipsoid[bonus[nlocal_bonus-1].ilocal]: 4
bonus[ellipsoid[i]].ilocal: 4
ellipsoid[j]: 4
75  ekin = 10937.6011886602 | epot = 1.89857365055469 | etot = 10939.4997623107
76  ekin = 10937.6037979942 | epot = 1.89596430248924 | etot = 10939.4997622967
77  ekin = 10937.6064356938 | epot = 1.89332658869581 | etot = 10939.4997622825
78  ekin = 10937.6091015308 | epot = 1.89066073742569 | etot = 10939.4997622683
79  ekin = 10937.611795275 | epot = 1.88796697890525 | etot = 10939.4997622539
80  ekin = 10937.6145166941 | epot = 1.88524554530155 | etot = 10939.4997622394
81  ekin = 10937.617265554 | epot = 1.88249667068778 | etot = 10939.4997622247
82  ekin = 10937.620041619 | epot = 1.87972059100853 | etot = 10939.49976221
83  ekin = 10937.6228446511 | epot = 1.87691754404498 | etot = 10939.4997621952
84  ekin = 10937.6256744108 | epot = 1.87408776937985 | etot = 10939.4997621802
85  ekin = 10937.6285306568 | epot = 1.87123150836238 | etot = 10939.4997621652
86  ekin = 10937.631413146 | epot = 1.86834900407307 | etot = 10939.49976215
87  ekin = 10937.6343216335 | epot = 1.86544050128835 | etot = 10939.4997621348
88  ekin = 10937.637255873 | epot = 1.86250624644522 | etot = 10939.4997621194
89  ekin = 10937.6402156164 | epot = 1.8595464876057 | etot = 10939.499762104
90  ekin = 10937.643200614 | epot = 1.85656147442129 | etot = 10939.4997620885
91  ekin = 10937.6462106147 | epot = 1.85355145809732 | etot = 10939.4997620728
92  ekin = 10937.6492453658 | epot = 1.85051669135722 | etot = 10939.4997620571
93  ekin = 10937.6523046129 | epot = 1.84745742840681 | etot = 10939.4997620413
94  ekin = 10937.6553881006 | epot = 1.84437392489844 | etot = 10939.4997620255
95  ekin = 10937.6584955716 | epot = 1.84126643789522 | etot = 10939.4997620095
96  ekin = 10937.6616267676 | epot = 1.83813522583511 | etot = 10939.4997619935
97  ekin = 10937.6647814289 | epot = 1.83498054849505 | etot = 10939.4997619774
98  ekin = 10937.6679592942 | epot = 1.83180266695507 | etot = 10939.4997619612
99  ekin = 10937.6711601014 | epot = 1.82860184356242 | etot = 10939.4997619449
100  ekin = 10937.6743835867 | epot = 1.82537834189564 | etot = 10939.4997619286
101  ekin = 10937.6776294855 | epot = 1.82213242672869 | etot = 10939.4997619122
102  ekin = 10937.6808975317 | epot = 1.81886436399516 | etot = 10939.4997618957
103  ekin = 10937.6841874585 | epot = 1.81557442075237 | etot = 10939.4997618792
104  ekin = 10937.6874989975 | epot = 1.81226286514558 | etot = 10939.4997618626
105  ekin = 10937.6908318796 | epot = 1.80892996637234 | etot = 10939.499761846
106  ekin = 10937.6941858347 | epot = 1.80557599464672 | etot = 10939.4997618293
107  ekin = 10937.6975605914 | epot = 1.80220122116371 | etot = 10939.4997618126
108  ekin = 10937.7009558777 | epot = 1.79880591806362 | etot = 10939.4997617958
109  ekin = 10937.7043714205 | epot = 1.79539035839666 | etot = 10939.4997617789
110  ekin = 10937.7078069459 | epot = 1.7919548160875 | etot = 10939.499761762
111  ekin = 10937.7112621792 | epot = 1.78849956589994 | etot = 10939.4997617451
112  ekin = 10937.7147368447 | epot = 1.78502488340172 | etot = 10939.4997617281
113  ekin = 10937.7182306662 | epot = 1.78153104492941 | etot = 10939.4997617111
114  ekin = 10937.7217433665 | epot = 1.77801832755337 | etot = 10939.499761694
115  ekin = 10937.7252746679 | epot = 1.77448700904291 | etot = 10939.4997616769
116  ekin = 10937.728824292 | epot = 1.77093736783147 | etot = 10939.4997616598
117  ekin = 10937.7323919597 | epot = 1.76736968298206 | etot = 10939.4997616427
118  ekin = 10937.7359773913 | epot = 1.76378423415268 | etot = 10939.4997616255
119  ekin = 10937.7395803067 | epot = 1.76018130156206 | etot = 10939.4997616083
120  ekin = 10937.7432004251 | epot = 1.75656116595537 | etot = 10939.4997615911
121  ekin = 10937.7468374652 | epot = 1.75292410857025 | etot = 10939.4997615738
122  ekin = 10937.7504911454 | epot = 1.74927041110288 | etot = 10939.4997615565
123  ekin = 10937.7541611836 | epot = 1.74560035567427 | etot = 10939.4997615392
124  ekin = 10937.7578472971 | epot = 1.74191422479673 | etot = 10939.4997615219
125  ekin = 10937.7615492033 | epot = 1.73821230134052 | etot = 10939.4997615046
126  ekin = 10937.7652666188 | epot = 1.73449486850064 | etot = 10939.4997614873
127  ekin = 10937.7689992602 | epot = 1.73076220976386 | etot = 10939.4997614699
128  ekin = 10937.7727468437 | epot = 1.72701460887594 | etot = 10939.4997614526
129  ekin = 10937.7765090854 | epot = 1.72325234980904 | etot = 10939.4997614352
130  ekin = 10937.7802857012 | epot = 1.71947571672932 | etot = 10939.4997614179
131  ekin = 10937.7840764066 | epot = 1.7156849939648 | etot = 10939.4997614005
132  ekin = 10937.7878809172 | epot = 1.71188046597337 | etot = 10939.4997613832
133  ekin = 10937.7916989485 | epot = 1.7080624173111 | etot = 10939.4997613658
134  ekin = 10937.7955302159 | epot = 1.70423113260072 | etot = 10939.4997613485
135  ekin = 10937.7993744346 | epot = 1.70038689650033 | etot = 10939.4997613311
136  ekin = 10937.8032313201 | epot = 1.6965299936724 | etot = 10939.4997613138
137  ekin = 10937.8071005877 | epot = 1.69266070875291 | etot = 10939.4997612965
138  ekin = 10937.8109819529 | epot = 1.68877932632087 | etot = 10939.4997612792
139  ekin = 10937.814875131 | epot = 1.68488613086799 | etot = 10939.4997612619
140  ekin = 10937.8187798378 | epot = 1.68098140676856 | etot = 10939.4997612446
141  ekin = 10937.8226957891 | epot = 1.67706543824979 | etot = 10939.4997612273
142  ekin = 10937.8266227007 | epot = 1.67313850936212 | etot = 10939.4997612101
143  ekin = 10937.8305602889 | epot = 1.66920090395008 | etot = 10939.4997611929
144  ekin = 10937.8345082701 | epot = 1.66525290562317 | etot = 10939.4997611757
145  ekin = 10937.8384663608 | epot = 1.6612947977272 | etot = 10939.4997611585
146  ekin = 10937.8424342781 | epot = 1.65732686331582 | etot = 10939.4997611414
147  ekin = 10937.8464117392 | epot = 1.6533493851223 | etot = 10939.4997611243
148  ekin = 10937.8503984617 | epot = 1.64936264553164 | etot = 10939.4997611072
149  ekin = 10937.8543941636 | epot = 1.64536692655297 | etot = 10939.4997610902
150  ekin = 10937.8583985634 | epot = 1.64136250979219 | etot = 10939.4997610731
151  ekin = 10937.8624113797 | epot = 1.63734967642491 | etot = 10939.4997610562
152  ekin = 10937.8664323321 | epot = 1.63332870716973 | etot = 10939.4997610392
153  ekin = 10937.8704611401 | epot = 1.62929988226174 | etot = 10939.4997610223
154  ekin = 10937.874497524 | epot = 1.62526348142638 | etot = 10939.4997610055
155  ekin = 10937.8785412048 | epot = 1.62121978385355 | etot = 10939.4997609887
156  ekin = 10937.8825919037 | epot = 1.61716906817206 | etot = 10939.4997609719
157  ekin = 10937.8866493427 | epot = 1.61311161242432 | etot = 10939.4997609552
158  ekin = 10937.8907132444 | epot = 1.60904769404144 | etot = 10939.4997609385
159  ekin = 10937.894783332 | epot = 1.60497758981853 | etot = 10939.4997609218
160  ekin = 10937.8988593294 | epot = 1.60090157589035 | etot = 10939.4997609053
161  ekin = 10937.902940961 | epot = 1.59681992770727 | etot = 10939.4997608887
162  ekin = 10937.9070279522 | epot = 1.59273292001157 | etot = 10939.4997608723
163  ekin = 10937.911120029 | epot = 1.58864082681398 | etot = 10939.4997608558
164  ekin = 10937.9152169181 | epot = 1.5845439213706 | etot = 10939.4997608395
165  ekin = 10937.919318347 | epot = 1.58044247616009 | etot = 10939.4997608232
166  ekin = 10937.923424044 | epot = 1.57633676286119 | etot = 10939.4997608069
167  ekin = 10937.9275337384 | epot = 1.57222705233058 | etot = 10939.4997607907
168  ekin = 10937.93164716 | epot = 1.56811361458104 | etot = 10939.4997607746
169  ekin = 10937.9357640398 | epot = 1.5639967187599 | etot = 10939.4997607585
170  ekin = 10937.9398841094 | epot = 1.55987663312782 | etot = 10939.4997607425
171  ekin = 10937.9440071015 | epot = 1.55575362503794 | etot = 10939.4997607266
172  ekin = 10937.9481327498 | epot = 1.55162796091527 | etot = 10939.4997607107
173  ekin = 10937.9522607887 | epot = 1.54749990623646 | etot = 10939.4997606949
174  ekin = 10937.9563909536 | epot = 1.54336972550989 | etot = 10939.4997606792
175  ekin = 10937.9605229812 | epot = 1.53923768225597 | etot = 10939.4997606635
176  ekin = 10937.9646566089 | epot = 1.53510403898797 | etot = 10939.4997606479
177  ekin = 10937.9687915752 | epot = 1.53096905719291 | etot = 10939.4997606324
178  ekin = 10937.9729276196 | epot = 1.52683299731303 | etot = 10939.4997606169
179  ekin = 10937.9770644828 | epot = 1.52269611872735 | etot = 10939.4997606015
180  ekin = 10937.9812019065 | epot = 1.51855867973374 | etot = 10939.4997605862
181  ekin = 10937.9853396335 | epot = 1.51442093753114 | etot = 10939.499760571
182  ekin = 10937.9894774077 | epot = 1.51028314820223 | etot = 10939.4997605559
183  ekin = 10937.9936149741 | epot = 1.50614556669635 | etot = 10939.4997605408
184  ekin = 10937.997752079 | epot = 1.50200844681273 | etot = 10939.4997605258
185  ekin = 10938.0018884697 | epot = 1.49787204118409 | etot = 10939.4997605109
186  ekin = 10938.0060238948 | epot = 1.49373660126048 | etot = 10939.4997604961
187  ekin = 10938.010158104 | epot = 1.48960237729352 | etot = 10939.4997604813
188  ekin = 10938.0142908483 | epot = 1.48546961832087 | etot = 10939.4997604667
189  ekin = 10938.0184218799 | epot = 1.48133857215103 | etot = 10939.4997604521
190  ekin = 10938.0225509522 | epot = 1.47720948534852 | etot = 10939.4997604376
191  ekin = 10938.02667782 | epot = 1.47308260321929 | etot = 10939.4997604232
192  ekin = 10938.0308022391 | epot = 1.46895816979645 | etot = 10939.4997604089
193  ekin = 10938.0349239668 | epot = 1.46483642782632 | etot = 10939.4997603946
194  ekin = 10938.0390427617 | epot = 1.46071761875479 | etot = 10939.4997603805
195  ekin = 10938.0431583837 | epot = 1.45660198271401 | etot = 10939.4997603664
196  ekin = 10938.0472705939 | epot = 1.45248975850929 | etot = 10939.4997603524
197  ekin = 10938.051379155 | epot = 1.44838118360638 | etot = 10939.4997603386
198  ekin = 10938.0554838307 | epot = 1.44427649411904 | etot = 10939.4997603248
199  ekin = 10938.0595843863 | epot = 1.44017592479687 | etot = 10939.4997603111
200  ekin = 10938.0636805885 | epot = 1.43607970901349 | etot = 10939.4997602975
201  ekin = 10938.0677722052 | epot = 1.43198807875491 | etot = 10939.499760284
202  ekin = 10938.0718590059 | epot = 1.42790126460833 | etot = 10939.4997602706
203  ekin = 10938.0759407615 | epot = 1.42381949575114 | etot = 10939.4997602572
204  ekin = 10938.0800172441 | epot = 1.41974299994017 | etot = 10939.499760244
205  ekin = 10938.0840882274 | epot = 1.41567200350135 | etot = 10939.4997602309
206  ekin = 10938.0881534865 | epot = 1.41160673131954 | etot = 10939.4997602178
207  ekin = 10938.0922127981 | epot = 1.40754740682869 | etot = 10939.4997602049
208  ekin = 10938.09626594 | epot = 1.40349425200223 | etot = 10939.499760192
209  ekin = 10938.1003126919 | epot = 1.39944748734384 | etot = 10939.4997601793
210  ekin = 10938.1043528348 | epot = 1.39540733187835 | etot = 10939.4997601666
211  ekin = 10938.1083861509 | epot = 1.39137400314304 | etot = 10939.4997601541
212  ekin = 10938.1124124245 | epot = 1.3873477171791 | etot = 10939.4997601416
213  ekin = 10938.1164314408 | epot = 1.38332868852347 | etot = 10939.4997601293
214  ekin = 10938.1204429868 | epot = 1.37931713020081 | etot = 10939.499760117
215  ekin = 10938.1244468512 | epot = 1.37531325371584 | etot = 10939.4997601049
216  ekin = 10938.1284428238 | epot = 1.3713172690459 | etot = 10939.4997600928
217  ekin = 10938.1324306962 | epot = 1.3673293846337 | etot = 10939.4997600809
218  ekin = 10938.1364102616 | epot = 1.36334980738049 | etot = 10939.499760069
219  ekin = 10938.1403813146 | epot = 1.35937874263928 | etot = 10939.4997600573
220  ekin = 10938.1443436514 | epot = 1.35541639420842 | etot = 10939.4997600456
221  ekin = 10938.1482970697 | epot = 1.35146296432544 | etot = 10939.4997600341
222  ekin = 10938.1522413689 | epot = 1.34751865366103 | etot = 10939.4997600226
223  ekin = 10938.1561763499 | epot = 1.34358366131339 | etot = 10939.4997600113
224  ekin = 10938.1601018152 | epot = 1.33965818480268 | etot = 10939.49976
i (nlocal_bonus - 1): 3, j (ellipsoid[i]): 3
ellipsoid[bonus[nlocal_bonus-1].ilocal]: 3
bonus[ellipsoid[i]].ilocal: 3
ellipsoid[j]: 3
225  ekin = 10938.1640175688 | epot = 1.33574242006582 | etot = 10939.4997599889
226  ekin = 10938.1679234164 | epot = 1.33183656145146 | etot = 10939.4997599778
227  ekin = 10938.1718191652 | epot = 1.32794080171514 | etot = 10939.4997599669
228  ekin = 10938.1757046241 | epot = 1.3240553320148 | etot = 10939.4997599561
229  ekin = 10938.1795796034 | epot = 1.32018034190634 | etot = 10939.4997599453
230  ekin = 10938.1834439154 | epot = 1.31631601933954 | etot = 10939.4997599347
231  ekin = 10938.1872973735 | epot = 1.31246255065413 | etot = 10939.4997599242
232  ekin = 10938.1911397932 | epot = 1.30862012057609 | etot = 10939.4997599138
233  ekin = 10938.1949709913 | epot = 1.30478891221413 | etot = 10939.4997599035
234  ekin = 10938.1987907862 | epot = 1.30096910705642 | etot = 10939.4997598933
235  ekin = 10938.2025989982 | epot = 1.29716088496747 | etot = 10939.4997598832
236  ekin = 10938.206395449 | epot = 1.29336442418528 | etot = 10939.4997598732
237  ekin = 10938.210179962 | epot = 1.2895799013186 | etot = 10939.4997598633
238  ekin = 10938.2139523621 | epot = 1.28580749134448 | etot = 10939.4997598535
239  ekin = 10938.2177124762 | epot = 1.28204736760589 | etot = 10939.4997598438
240  ekin = 10938.2214601324 | epot = 1.27829970180969 | etot = 10939.4997598342
241  ekin = 10938.2251951607 | epot = 1.27456466402457 | etot = 10939.4997598247
242  ekin = 10938.2289173927 | epot = 1.27084242267941 | etot = 10939.4997598154
243  ekin = 10938.2326266615 | epot = 1.26713314456159 | etot = 10939.4997598061
244  ekin = 10938.2363228021 | epot = 1.26343699481569 | etot = 10939.4997597969
245  ekin = 10938.2400056509 | epot = 1.25975413694218 | etot = 10939.4997597879
246  ekin = 10938.2436750461 | epot = 1.25608473279636 | etot = 10939.4997597789
247  ekin = 10938.2473308275 | epot = 1.25242894258749 | etot = 10939.4997597701
248  ekin = 10938.2509728365 | epot = 1.24878692487802 | etot = 10939.4997597613
249  ekin = 10938.2546009161 | epot = 1.24515883658306 | etot = 10939.4997597527
250  ekin = 10938.2582149112 | epot = 1.24154483296988 | etot = 10939.4997597442
251  ekin = 10938.2618146681 | epot = 1.23794506765771 | etot = 10939.4997597357
252  ekin = 10938.2654000348 | epot = 1.23435969261759 | etot = 10939.4997597274
253  ekin = 10938.268970861 | epot = 1.23078885817239 | etot = 10939.4997597192
254  ekin = 10938.2725269981 | epot = 1.227232712997 | etot = 10939.4997597111
255  ekin = 10938.2760682989 | epot = 1.22369140411863 | etot = 10939.4997597031
256  ekin = 10938.2795946182 | epot = 1.22016507691727 | etot = 10939.4997596951
257  ekin = 10938.2831058122 | epot = 1.21665387512626 | etot = 10939.4997596873
258  ekin = 10938.2866017388 | epot = 1.21315794083303 | etot = 10939.4997596796
259  ekin = 10938.2900822575 | epot = 1.20967741447992 | etot = 10939.499759672
260  ekin = 10938.2935472297 | epot = 1.20621243486519 | etot = 10939.4997596645
261  ekin = 10938.296996518 | epot = 1.20276313914406 | etot = 10939.4997596571
262  ekin = 10938.300429987 | epot = 1.19932966282998 | etot = 10939.4997596498
263  ekin = 10938.3038475029 | epot = 1.19591213979595 | etot = 10939.4997596426
264  ekin = 10938.3072489333 | epot = 1.19251070227591 | etot = 10939.4997596356
265  ekin = 10938.3106341477 | epot = 1.1891254808664 | etot = 10939.4997596286
266  ekin = 10938.3140030172 | epot = 1.18575660452815 | etot = 10939.4997596217
267  ekin = 10938.3173554143 | epot = 1.18240420058789 | etot = 10939.4997596149
268  ekin = 10938.3206912135 | epot = 1.17906839474018 | etot = 10939.4997596082
269  ekin = 10938.3240102906 | epot = 1.17574931104947 | etot = 10939.4997596016
270  ekin = 10938.3273125232 | epot = 1.17244707195207 | etot = 10939.4997595952
271  ekin = 10938.3305977905 | epot = 1.16916179825842 | etot = 10939.4997595888
272  ekin = 10938.3338659734 | epot = 1.16589360915526 | etot = 10939.4997595825
273  ekin = 10938.3371169541 | epot = 1.16264262220806 | etot = 10939.4997595763
274  ekin = 10938.3403506169 | epot = 1.15940895336337 | etot = 10939.4997595703
275  ekin = 10938.3435668473 | epot = 1.15619271695143 | etot = 10939.4997595643
276  ekin = 10938.3467655327 | epot = 1.15299402568869 | etot = 10939.4997595584
277  ekin = 10938.349946562 | epot = 1.14981299068055 | etot = 10939.4997595526
278  ekin = 10938.3531098255 | epot = 1.14664972142406 | etot = 10939.499759547
279  ekin = 10938.3562552156 | epot = 1.14350432581081 | etot = 10939.4997595414
280  ekin = 10938.3593826258 | epot = 1.14037691012977 | etot = 10939.4997595359
281  ekin = 10938.3624919514 | epot = 1.13726757907029 | etot = 10939.4997595305
282  ekin = 10938.3655830895 | epot = 1.13417643572514 | etot = 10939.4997595252
283  ekin = 10938.3686559385 | epot = 1.13110358159355 | etot = 10939.49975952
284  ekin = 10938.3717103984 | epot = 1.12804911658447 | etot = 10939.499759515
285  ekin = 10938.3747463709 | epot = 1.12501313901967 | etot = 10939.49975951
286  ekin = 10938.3777637594 | epot = 1.1219957456371 | etot = 10939.4997595051
287  ekin = 10938.3807624687 | epot = 1.11899703159417 | etot = 10939.4997595003
288  ekin = 10938.3837424051 | epot = 1.11601709047112 | etot = 10939.4997594956
289  ekin = 10938.3867034767 | epot = 1.11305601427451 | etot = 10939.499759491
290  ekin = 10938.389645593 | epot = 1.1101138934406 | etot = 10939.4997594865
291  ekin = 10938.3925686652 | epot = 1.10719081683894 | etot = 10939.499759482
292  ekin = 10938.395472606 | epot = 1.10428687177591 | etot = 10939.4997594777
293  ekin = 10938.3983573295 | epot = 1.10140214399831 | etot = 10939.4997594735
294  ekin = 10938.4012227517 | epot = 1.09853671769699 | etot = 10939.4997594694
295  ekin = 10938.4040687898 | epot = 1.09569067551057 | etot = 10939.4997594653
296  ekin = 10938.4068953629 | epot = 1.09286409852909 | etot = 10939.4997594614
297  ekin = 10938.4097023913 | epot = 1.0900570662978 | etot = 10939.4997594576
298  ekin = 10938.412489797 | epot = 1.0872696568209 | etot = 10939.4997594538
299  ekin = 10938.4152575036 | epot = 1.08450194656535 | etot = 10939.4997594501
i (nlocal_bonus - 1): 2, j (ellipsoid[i]): 2
ellipsoid[bonus[nlocal_bonus-1].ilocal]: 2
bonus[ellipsoid[i]].ilocal: 2
ellipsoid[j]: 2
300  ekin = 10938.4180054361 | epot = 1.0817540104647 | etot = 10939.4997594466
301  ekin = 10938.4207335212 | epot = 1.07902592192294 | etot = 10939.4997594431
302  ekin = 10938.4234416869 | epot = 1.07631775281834 | etot = 10939.4997594397
303  ekin = 10938.4261298629 | epot = 1.0736295735074 | etot = 10939.4997594364
304  ekin = 10938.4287979804 | epot = 1.07096145282871 | etot = 10939.4997594332
305  ekin = 10938.431445972 | epot = 1.06831345810689 | etot = 10939.4997594301
306  ekin = 10938.4340737719 | epot = 1.06568565515656 | etot = 10939.4997594271
307  ekin = 10938.4366813159 | epot = 1.06307810828626 | etot = 10939.4997594242
308  ekin = 10938.439268541 | epot = 1.06049088030243 | etot = 10939.4997594213
309  ekin = 10938.4418353861 | epot = 1.0579240325134 | etot = 10939.4997594186
310  ekin = 10938.4443817912 | epot = 1.05537762473338 | etot = 10939.4997594159
311  ekin = 10938.4469076981 | epot = 1.05285171528641 | etot = 10939.4997594134
312  ekin = 10938.4494130499 | epot = 1.05034636101041 | etot = 10939.4997594109
313  ekin = 10938.4518977912 | epot = 1.04786161726118 | etot = 10939.4997594085
314  ekin = 10938.4543618683 | epot = 1.04539753791636 | etot = 10939.4997594062
315  ekin = 10938.4568052286 | epot = 1.04295417537948 | etot = 10939.499759404
316  ekin = 10938.4592278213 | epot = 1.04053158058396 | etot = 10939.4997594018
317  ekin = 10938.4616295968 | epot = 1.0381298029971 | etot = 10939.4997593998
318  ekin = 10938.4640105072 | epot = 1.0357488906241 | etot = 10939.4997593979
319  ekin = 10938.466370506 | epot = 1.03338889001203 | etot = 10939.499759396
320  ekin = 10938.468709548 | epot = 1.03104984625386 | etot = 10939.4997593942
321  ekin = 10938.4710275895 | epot = 1.02873180299241 | etot = 10939.4997593925
322  ekin = 10938.4733245885 | epot = 1.02643480242435 | etot = 10939.4997593909
323  ekin = 10938.4756005041 | epot = 1.02415888530415 | etot = 10939.4997593894
324  ekin = 10938.477855297 | epot = 1.02190409094807 | etot = 10939.499759388
325  ekin = 10938.4800889294 | epot = 1.01967045723806 | etot = 10939.4997593866
326  ekin = 10938.4823013647 | epot = 1.01745802062575 | etot = 10939.4997593854
327  ekin = 10938.484492568 | epot = 1.01526681613629 | etot = 10939.4997593842
328  ekin = 10938.4866625057 | epot = 1.01309687737237 | etot = 10939.4997593831
329  ekin = 10938.4888111456 | epot = 1.01094823651799 | etot = 10939.4997593821
330  ekin = 10938.4909384568 | epot = 1.00882092434244 | etot = 10939.4997593811
331  ekin = 10938.4930444101 | epot = 1.00671497020409 | etot = 10939.4997593803
332  ekin = 10938.4951289775 | epot = 1.00463040205425 | etot = 10939.4997593795
333  ekin = 10938.4971921324 | epot = 1.00256724644099 | etot = 10939.4997593789
334  ekin = 10938.4992338498 | epot = 1.00052552851297 | etot = 10939.4997593783
335  ekin = 10938.5012541057 | epot = 0.998505272023168 | etot = 10939.4997593778
336  ekin = 10938.503252878 | epot = 0.996506499332699 | etot = 10939.4997593773
337  ekin = 10938.5052301456 | epot = 0.994529231414507 | etot = 10939.499759377
338  ekin = 10938.5071858888 | epot = 0.992573487857107 | etot = 10939.4997593767
339  ekin = 10938.5091200896 | epot = 0.990639286868275 | etot = 10939.4997593765
340  ekin = 10938.5110327311 | epot = 0.988726645278717 | etot = 10939.4997593764
341  ekin = 10938.5129237978 | epot = 0.986835578545722 | etot = 10939.4997593764
342  ekin = 10938.5147932757 | epot = 0.984966100756775 | etot = 10939.4997593764
343  ekin = 10938.5166411519 | epot = 0.983118224633165 | etot = 10939.4997593766
344  ekin = 10938.5184674153 | epot = 0.981291961533553 | etot = 10939.4997593768
345  ekin = 10938.5202720556 | epot = 0.979487321457513 | etot = 10939.4997593771
346  ekin = 10938.5220550644 | epot = 0.977704313049069 | etot = 10939.4997593775
347  ekin = 10938.5238164343 | epot = 0.975942943600177 | etot = 10939.4997593779
348  ekin = 10938.5255561594 | epot = 0.974203219054196 | etot = 10939.4997593785
349  ekin = 10938.5272742351 | epot = 0.972485144009322 | etot = 10939.4997593791
350  ekin = 10938.528970658 | epot = 0.970788721722022 | etot = 10939.4997593798
351  ekin = 10938.5306454264 | epot = 0.969113954110397 | etot = 10939.4997593805
352  ekin = 10938.5322985396 | epot = 0.967460841757559 | etot = 10939.4997593814
353  ekin = 10938.5339299984 | epot = 0.96582938391495 | etot = 10939.4997593823
354  ekin = 10938.5355398048 | epot = 0.964219578505654 | etot = 10939.4997593833
355  ekin = 10938.5371279622 | epot = 0.962631422127662 | etot = 10939.4997593844
356  ekin = 10938.5386944755 | epot = 0.96106491005714 | etot = 10939.4997593855
357  ekin = 10938.5402393505 | epot = 0.959520036251621 | etot = 10939.4997593868
358  ekin = 10938.5417625947 | epot = 0.957996793353224 | etot = 10939.4997593881
359  ekin = 10938.5432642168 | epot = 0.956495172691792 | etot = 10939.4997593895
360  ekin = 10938.5447442266 | epot = 0.955015164288056 | etot = 10939.4997593909
361  ekin = 10938.5462026356 | epot = 0.953556756856728 | etot = 10939.4997593925
362  ekin = 10938.5476394563 | epot = 0.952119937809579 | etot = 10939.4997593941
363  ekin = 10938.5490547025 | epot = 0.950704693258499 | etot = 10939.4997593958
364  ekin = 10938.5504483895 | epot = 0.949311008018523 | etot = 10939.4997593975
365  ekin = 10938.5518205338 | epot = 0.947938865610833 | etot = 10939.4997593994
366  ekin = 10938.553171153 | epot = 0.946588248265731 | etot = 10939.4997594013
367  ekin = 10938.5545002664 | epot = 0.945259136925582 | etot = 10939.4997594033
368  ekin = 10938.5558078941 | epot = 0.943951511247737 | etot = 10939.4997594054
369  ekin = 10938.5570940579 | epot = 0.942665349607432 | etot = 10939.4997594075
370  ekin = 10938.5583587806 | epot = 0.941400629100654 | etot = 10939.4997594097
371  ekin = 10938.5596020865 | epot = 0.940157325546985 | etot = 10939.499759412
372  ekin = 10938.5608240009 | epot = 0.938935413492433 | etot = 10939.4997594144
373  ekin = 10938.5620245506 | epot = 0.937734866212211 | etot = 10939.4997594168
i (nlocal_bonus - 1): 1, j (ellipsoid[i]): 1
ellipsoid[bonus[nlocal_bonus-1].ilocal]: 1
bonus[ellipsoid[i]].ilocal: 1
ellipsoid[j]: 1
374  ekin = 10938.5632037636 | epot = 0.936555655713533 | etot = 10939.4997594193
375  ekin = 10938.5643616692 | epot = 0.935397752738346 | etot = 10939.4997594219
376  ekin = 10938.5654982978 | epot = 0.934261126766066 | etot = 10939.4997594246
377  ekin = 10938.5666136813 | epot = 0.933145746016284 | etot = 10939.4997594273
378  ekin = 10938.5677078527 | epot = 0.932051577451453 | etot = 10939.4997594301
379  ekin = 10938.5687808462 | epot = 0.930978586779552 | etot = 10939.499759433
380  ekin = 10938.5698326975 | epot = 0.929926738456728 | etot = 10939.4997594359
381  ekin = 10938.5708634433 | epot = 0.928895995689921 | etot = 10939.499759439
382  ekin = 10938.5718731216 | epot = 0.927886320439476 | etot = 10939.4997594421
383  ekin = 10938.5728617718 | epot = 0.92689767342173 | etot = 10939.4997594452
384  ekin = 10938.5738294344 | epot = 0.925930014111588 | etot = 10939.4997594485
385  ekin = 10938.574776151 | epot = 0.924983300745075 | etot = 10939.4997594518
386  ekin = 10938.5757019648 | epot = 0.924057490321874 | etot = 10939.4997594552
387  ekin = 10938.57660692 | epot = 0.923152538607862 | etot = 10939.4997594586
388  ekin = 10938.577491062 | epot = 0.922268400137609 | etot = 10939.4997594621
389  ekin = 10938.5783544375 | epot = 0.921405028216892 | etot = 10939.4997594657
390  ekin = 10938.5791970945 | epot = 0.920562374925177 | etot = 10939.4997594694
391  ekin = 10938.580019082 | epot = 0.919740391118091 | etot = 10939.4997594732
392  ekin = 10938.5808204505 | epot = 0.918939026429895 | etot = 10939.499759477
393  ekin = 10938.5816012516 | epot = 0.918158229275947 | etot = 10939.4997594809
394  ekin = 10938.5823615379 | epot = 0.91739794685513 | etot = 10939.4997594848
395  ekin = 10938.5831013637 | epot = 0.916658125152323 | etot = 10939.4997594888
396  ekin = 10938.583820784 | epot = 0.915938708940822 | etot = 10939.4997594929
397  ekin = 10938.5845198553 | epot = 0.915239641784773 | etot = 10939.4997594971
398  ekin = 10938.5851986353 | epot = 0.914560866041599 | etot = 10939.4997595013
399  ekin = 10938.5858571828 | epot = 0.913902322864434 | etot = 10939.4997595056
400  ekin = 10938.5864955578 | epot = 0.913263952204541 | etot = 10939.49975951
401  ekin = 10938.5871138216 | epot = 0.912645692813735 | etot = 10939.4997595144
402  ekin = 10938.5877120367 | epot = 0.912047482246799 | etot = 10939.499759519
403  ekin = 10938.5882902667 | epot = 0.911469256863941 | etot = 10939.4997595235
404  ekin = 10938.5888485764 | epot = 0.910910951833181 | etot = 10939.4997595282
405  ekin = 10938.5893870318 | epot = 0.910372501132818 | etot = 10939.4997595329
406  ekin = 10938.5899057002 | epot = 0.909853837553851 | etot = 10939.4997595377
407  ekin = 10938.5904046499 | epot = 0.909354892702434 | etot = 10939.4997595426
408  ekin = 10938.5908839505 | epot = 0.908875597002325 | etot = 10939.4997595475
409  ekin = 10938.5913436728 | epot = 0.908415879697363 | etot = 10939.4997595525
410  ekin = 10938.5917838887 | epot = 0.907975668853921 | etot = 10939.4997595576
411  ekin = 10938.5922046713 | epot = 0.907554891363411 | etot = 10939.4997595627
412  ekin = 10938.592606095 | epot = 0.907153472944772 | etot = 10939.4997595679
413  ekin = 10938.592988235 | epot = 0.906771338147006 | etot = 10939.4997595732
414  ekin = 10938.5933511682 | epot = 0.90640841035168 | etot = 10939.4997595785
415  ekin = 10938.5936949722 | epot = 0.906064611775503 | etot = 10939.4997595839
416  ekin = 10938.5940197259 | epot = 0.905739863472874 | etot = 10939.4997595894
417  ekin = 10938.5943255096 | epot = 0.905434085338486 | etot = 10939.4997595949
418  ekin = 10938.5946124044 | epot = 0.905147196109925 | etot = 10939.4997596006
419  ekin = 10938.5948804929 | epot = 0.904879113370313 | etot = 10939.4997596062
420  ekin = 10938.5951298584 | epot = 0.904629753550962 | etot = 10939.499759612
421  ekin = 10938.5953605859 | epot = 0.904399031934052 | etot = 10939.4997596178
422  ekin = 10938.595572761 | epot = 0.904186862655373 | etot = 10939.4997596237
423  ekin = 10938.5957664709 | epot = 0.90399315870703 | etot = 10939.4997596296
424  ekin = 10938.5959418037 | epot = 0.903817831940246 | etot = 10939.4997596356
425  ekin = 10938.5960988486 | epot = 0.903660793068146 | etot = 10939.4997596417
426  ekin = 10938.5962376962 | epot = 0.903521951668616 | etot = 10939.4997596479
427  ekin = 10938.5963584379 | epot = 0.903401216187164 | etot = 10939.4997596541
428  ekin = 10938.5964611664 | epot = 0.90329849393985 | etot = 10939.4997596604
429  ekin = 10938.5965459756 | epot = 0.903213691116206 | etot = 10939.4997596667
430  ekin = 10938.5966129603 | epot = 0.903146712782262 | etot = 10939.4997596731
431  ekin = 10938.5966622167 | epot = 0.903097462883558 | etot = 10939.4997596796
432  ekin = 10938.5966938419 | epot = 0.903065844248227 | etot = 10939.4997596861
433  ekin = 10938.5967079341 | epot = 0.90305175859011 | etot = 10939.4997596927
434  ekin = 10938.5967045929 | epot = 0.903055106511946 | etot = 10939.4997596994
435  ekin = 10938.5966839186 | epot = 0.90307578750855 | etot = 10939.4997597062
436  ekin = 10938.596646013 | epot = 0.903113699970116 | etot = 10939.499759713
437  ekin = 10938.5965909786 | epot = 0.903168741185515 | etot = 10939.4997597198
438  ekin = 10938.5965189194 | epot = 0.90324080734566 | etot = 10939.4997597268
439  ekin = 10938.5964299402 | epot = 0.903329793546957 | etot = 10939.4997597338
440  ekin = 10938.596324147 | epot = 0.903435593794758 | etot = 10939.4997597408
441  ekin = 10938.5962016469 | epot = 0.903558101006921 | etot = 10939.4997597479
442  ekin = 10938.5960625481 | epot = 0.903697207017404 | etot = 10939.4997597551
443  ekin = 10938.5959069598 | epot = 0.903852802579904 | etot = 10939.4997597624
444  ekin = 10938.5957349923 | epot = 0.904024777371618 | etot = 10939.4997597697
445  ekin = 10938.5955467571 | epot = 0.904213019996998 | etot = 10939.4997597771
446  ekin = 10938.5953423665 | epot = 0.904417417991632 | etot = 10939.4997597845
447  ekin = 10938.5951219342 | epot = 0.904637857826134 | etot = 10939.499759792
i (nlocal_bonus - 1): 0, j (ellipsoid[i]): 0
ellipsoid[bonus[nlocal_bonus-1].ilocal]: 0
bonus[ellipsoid[i]].ilocal: 0
ellipsoid[j]: 0
448  ekin = 10938.5948855747 | epot = 0.904874224910174 | etot = 10939.4997597996
449  ekin = 10938.5946334036 | epot = 0.905126403596507 | etot = 10939.4997598072
450  ekin = 10938.5943655377 | epot = 0.905394277185127 | etot = 10939.4997598149
451  ekin = 10938.5940820948 | epot = 0.905677727927456 | etot = 10939.4997598227
452  ekin = 10938.5937831935 | epot = 0.905976637030667 | etot = 10939.4997598305
453  ekin = 10938.5934689537 | epot = 0.90629088466202 | etot = 10939.4997598384
454  ekin = 10938.5931394964 | epot = 0.906620349953294 | etot = 10939.4997598463
455  ekin = 10938.5927949433 | epot = 0.906964911005334 | etot = 10939.4997598543
456  ekin = 10938.5924354175 | epot = 0.907324444892652 | etot = 10939.4997598624
457  ekin = 10938.5920610428 | epot = 0.907698827668115 | etot = 10939.4997598705
458  ekin = 10938.5916719443 | epot = 0.90808793436772 | etot = 10939.4997598787
459  ekin = 10938.5912682479 | epot = 0.908491639015444 | etot = 10939.4997598869
460  ekin = 10938.5908500806 | epot = 0.90890981462823 | etot = 10939.4997598952
461  ekin = 10938.5904175704 | epot = 0.909342333220991 | etot = 10939.4997599036
462  ekin = 10938.5899708462 | epot = 0.909789065811769 | etot = 10939.499759912
463  ekin = 10938.5895100381 | epot = 0.910249882426962 | etot = 10939.4997599205
464  ekin = 10938.5890352769 | epot = 0.910724652106619 | etot = 10939.499759929
465  ekin = 10938.5885466947 | epot = 0.91121324290992 | etot = 10939.4997599376
466  ekin = 10938.5880444244 | epot = 0.911715521920628 | etot = 10939.4997599463
467  ekin = 10938.5875285997 | epot = 0.912231355252742 | etot = 10939.499759955
468  ekin = 10938.5869993557 | epot = 0.912760608056224 | etot = 10939.4997599638
469  ekin = 10938.5864568281 | epot = 0.91330314452279 | etot = 10939.4997599726
470  ekin = 10938.5859011536 | epot = 0.913858827891863 | etot = 10939.4997599815
471  ekin = 10938.58533247 | epot = 0.914427520456587 | etot = 10939.4997599904
472  ekin = 10938.5847509159 | epot = 0.915009083569986 | etot = 10939.4997599994
473  ekin = 10938.5841566308 | epot = 0.915603377651186 | etot = 10939.4997600085
474  ekin = 10938.5835497554 | epot = 0.91621026219179 | etot = 10939.4997600176
475  ekin = 10938.582930431 | epot = 0.916829595762348 | etot = 10939.4997600267
476  ekin = 10938.5822987999 | epot = 0.917461236018922 | etot = 10939.499760036
477  ekin = 10938.5816550055 | epot = 0.918105039709783 | etot = 10939.4997600452
478  ekin = 10938.5809991919 | epot = 0.918760862682247 | etot = 10939.4997600546
479  ekin = 10938.5803315041 | epot = 0.919428559889572 | etot = 10939.4997600639
480  ekin = 10938.579652088 | epot = 0.920107985398007 | etot = 10939.4997600734
481  ekin = 10938.5789610905 | epot = 0.920798992393968 | etot = 10939.4997600829
482  ekin = 10938.5782586592 | epot = 0.921501433191316 | etot = 10939.4997600924
483  ekin = 10938.5775449427 | epot = 0.922215159238759 | etot = 10939.499760102
484  ekin = 10938.5768200905 | epot = 0.922940021127381 | etot = 10939.4997601116
485  ekin = 10938.5760842527 | epot = 0.923675868598304 | etot = 10939.4997601213
486  ekin = 10938.5753375805 | epot = 0.924422550550442 | etot = 10939.4997601311
487  ekin = 10938.5745802258 | epot = 0.925179915048432 | etot = 10939.4997601408
488  ekin = 10938.5738123414 | epot = 0.925947809330637 | etot = 10939.4997601507
489  ekin = 10938.5730340808 | epot = 0.926726079817334 | etot = 10939.4997601606
490  ekin = 10938.5722455984 | epot = 0.927514572118983 | etot = 10939.4997601705
491  ekin = 10938.5714470495 | epot = 0.928313131044643 | etot = 10939.4997601805
492  ekin = 10938.5706385899 | epot = 0.929121600610527 | etot = 10939.4997601905
493  ekin = 10938.5698203766 | epot = 0.929939824048685 | etot = 10939.4997602006
494  ekin = 10938.5689925669 | epot = 0.930767643815824 | etot = 10939.4997602107
495  ekin = 10938.5681553193 | epot = 0.931604901602236 | etot = 10939.4997602209
496  ekin = 10938.5673087928 | epot = 0.932451438340912 | etot = 10939.4997602311
497  ekin = 10938.5664531472 | epot = 0.933307094216726 | etot = 10939.4997602414
498  ekin = 10938.565588543 | epot = 0.934171708675814 | etot = 10939.4997602517
499  ekin = 10938.5647151416 | epot = 0.935045120435073 | etot = 10939.4997602621
500  ekin = 10938.563833105 | epot = 0.935927167491761 | etot = 10939.4997602725
501  ekin = 10938.5629425958 | epot = 0.936817687133274 | etot = 10939.4997602829
502  ekin = 10938.5620437774 | epot = 0.937716515947089 | etot = 10939.4997602934
503  ekin = 10938.5611368141 | epot = 0.938623489830764 | etot = 10939.4997603039
504  ekin = 10938.5602218704 | epot = 0.939538444002151 | etot = 10939.4997603145
505  ekin = 10938.559299112 | epot = 0.940461213009713 | etot = 10939.4997603251
506  ekin = 10938.558368705 | epot = 0.941391630743009 | etot = 10939.4997603357
507  ekin = 10938.5574308159 | epot = 0.942329530443282 | etot = 10939.4997603464
508  ekin = 10938.5564856124 | epot = 0.943274744714229 | etot = 10939.4997603571
509  ekin = 10938.5555332623 | epot = 0.944227105532881 | etot = 10939.4997603679
510  ekin = 10938.5545739344 | epot = 0.945186444260662 | etot = 10939.4997603786
511  ekin = 10938.5536077978 | epot = 0.946152591654543 | etot = 10939.4997603895
512  ekin = 10938.5526350225 | epot = 0.947125377878394 | etot = 10939.4997604003
513  ekin = 10938.5516557787 | epot = 0.948104632514419 | etot = 10939.4997604112
514  ekin = 10938.5506702376 | epot = 0.949090184574798 | etot = 10939.4997604222
515  ekin = 10938.5496785706 | epot = 0.950081862513415 | etot = 10939.4997604331
516  ekin = 10938.5486809499 | epot = 0.95107949423777 | etot = 10939.4997604442
517  ekin = 10938.5476775481 | epot = 0.95208290712102 | etot = 10939.4997604552
518  ekin = 10938.5466685382 | epot = 0.953091928014145 | etot = 10939.4997604662
519  ekin = 10938.5456540941 | epot = 0.95410638325831 | etot = 10939.4997604773
520  ekin = 10938.5446343898 | epot = 0.955126098697291 | etot = 10939.4997604885
521  ekin = 10938.5436095999 | epot = 0.956150899690129 | etot = 10939.4997604996
i (nlocal_bonus - 1): 6, j (ellipsoid[i]): 1
ellipsoid[bonus[nlocal_bonus-1].ilocal]: 1
bonus[ellipsoid[i]].ilocal: 1
ellipsoid[j]: 1
522  ekin = 10938.5425798997 | epot = 0.957180611123863 | etot = 10939.4997605108
523  ekin = 10938.5415454646 | epot = 0.958215057426434 | etot = 10939.499760522
524  ekin = 10938.5405064707 | epot = 0.959254062579735 | etot = 10939.4997605333
525  ekin = 10938.5394630944 | epot = 0.960297450132784 | etot = 10939.4997605445
526  ekin = 10938.5384155126 | epot = 0.96134504321505 | etot = 10939.4997605558
527  ekin = 10938.5373639026 | epot = 0.962396664549926 | etot = 10939.4997605671
528  ekin = 10938.536308442 | epot = 0.963452136468329 | etot = 10939.4997605784
529  ekin = 10938.5352493089 | epot = 0.964511280922431 | etot = 10939.4997605898
530  ekin = 10938.5341866817 | epot = 0.965573919499567 | etot = 10939.4997606012
531  ekin = 10938.5331207391 | epot = 0.966639873436244 | etot = 10939.4997606126
532  ekin = 10938.5320516604 | epot = 0.96770896363231 | etot = 10939.499760624
533  ekin = 10938.5309796248 | epot = 0.96878101066523 | etot = 10939.4997606354
534  ekin = 10938.5299048121 | epot = 0.969855834804556 | etot = 10939.4997606469
535  ekin = 10938.5288274023 | epot = 0.970933256026459 | etot = 10939.4997606584
536  ekin = 10938.5277475758 | epot = 0.97201309402844 | etot = 10939.4997606699
537  ekin = 10938.5266655131 | epot = 0.97309516824419 | etot = 10939.4997606814
538  ekin = 10938.525581395 | epot = 0.974179297858521 | etot = 10939.4997606929
539  ekin = 10938.5244954026 | epot = 0.975265301822478 | etot = 10939.4997607044
540  ekin = 10938.5234077171 | epot = 0.976352998868584 | etot = 10939.499760716
541  ekin = 10938.52231852 | epot = 0.977442207526157 | etot = 10939.4997607275
542  ekin = 10938.521227993 | epot = 0.978532746136845 | etot = 10939.4997607391
543  ekin = 10938.5201363178 | epot = 0.979624432870187 | etot = 10939.4997607507
544  ekin = 10938.5190436765 | epot = 0.980717085739361 | etot = 10939.4997607623
545  ekin = 10938.5179518232 | epot = 0.981809055471025 | etot = 10939.4997608787
546  ekin = 10938.5168626051 | epot = 0.982898282380977 | etot = 10939.4997608875
547  ekin = 10938.5157762802 | epot = 0.983984616081726 | etot = 10939.4997608963
548  ekin = 10938.5146929913 | epot = 0.9850679138415 | etot = 10939.4997609051
549  ekin = 10938.5136128813 | epot = 0.98614803273483 | etot = 10939.499760914
550  ekin = 10938.5125360932 | epot = 0.987224829657502 | etot = 10939.4997609228
551  ekin = 10938.5114627704 | epot = 0.988298161341586 | etot = 10939.4997609317
552  ekin = 10938.5103930562 | epot = 0.989367884370607 | etot = 10939.4997609406
553  ekin = 10938.5093270943 | epot = 0.990433855194774 | etot = 10939.4997609495
554  ekin = 10938.5082650282 | epot = 0.991495930146362 | etot = 10939.4997609584
555  ekin = 10938.5072070018 | epot = 0.9925539654552 | etot = 10939.4997609673
556  ekin = 10938.5061531589 | epot = 0.993607817264253 | etot = 10939.4997609762
557  ekin = 10938.5051036435 | epot = 0.994657341645276 | etot = 10939.4997609851
558  ekin = 10938.5040585994 | epot = 0.995702394614648 | etot = 10939.499760994
559  ekin = 10938.5030181708 | epot = 0.996742832149206 | etot = 10939.499761003
560  ekin = 10938.5019825017 | epot = 0.997778510202264 | etot = 10939.4997610119
561  ekin = 10938.5009517361 | epot = 0.998809284719673 | etot = 10939.4997610208
562  ekin = 10938.4999260181 | epot = 0.999835011655984 | etot = 10939.4997610298
563  ekin = 10938.4989054917 | epot = 1.0008555469907 | etot = 10939.4997610387
564  ekin = 10938.4978903009 | epot = 1.00187074674464 | etot = 10939.4997610476
565  ekin = 10938.4968805896 | epot = 1.00288046699632 | etot = 10939.4997610566
566  ekin = 10938.4958765016 | epot = 1.00388456389854 | etot = 10939.4997610655
567  ekin = 10938.4948781807 | epot = 1.00488289369487 | etot = 10939.4997610744
568  ekin = 10938.4938857706 | epot = 1.00587531273642 | etot = 10939.4997610833
569  ekin = 10938.4928994148 | epot = 1.0068616774985 | etot = 10939.4997610922
570  ekin = 10938.4919192566 | epot = 1.00784184459749 | etot = 10939.4997611012
571  ekin = 10938.4909454392 | epot = 1.00881567080767 | etot = 10939.4997611101
572  ekin = 10938.4899781059 | epot = 1.00978301307819 | etot = 10939.4997611189
573  ekin = 10938.4890173993 | epot = 1.01074372855011 | etot = 10939.4997611278
574  ekin = 10938.4880634621 | epot = 1.0116976745734 | etot = 10939.4997611367
575  ekin = 10938.4871164368 | epot = 1.01264470872415 | etot = 10939.4997611455
576  ekin = 10938.4861764656 | epot = 1.01358468882171 | etot = 10939.4997611544
577  ekin = 10938.4852436903 | epot = 1.01451747294591 | etot = 10939.4997611632
578  ekin = 10938.4843182526 | epot = 1.01544291945436 | etot = 10939.499761172
579  ekin = 10938.4834002938 | epot = 1.01636088699982 | etot = 10939.4997611808
580  ekin = 10938.482489955 | epot = 1.01727123454752 | etot = 10939.4997611896
581  ekin = 10938.4815873769 | epot = 1.01817382139259 | etot = 10939.4997611983
582  ekin = 10938.4806926999 | epot = 1.01906850717753 | etot = 10939.4997612071
583  ekin = 10938.4798060639 | epot = 1.01995515190964 | etot = 10939.4997612158
584  ekin = 10938.4789276085 | epot = 1.02083361597861 | etot = 10939.4997612245
585  ekin = 10938.478057473 | epot = 1.02170376017399 | etot = 10939.4997612331
586  ekin = 10938.4771957961 | epot = 1.02256544570281 | etot = 10939.4997612418
587  ekin = 10938.4763427162 | epot = 1.02341853420712 | etot = 10939.4997612504
588  ekin = 10938.4754983712 | epot = 1.02426288778161 | etot = 10939.499761259
589  ekin = 10938.4746628985 | epot = 1.02509836899123 | etot = 10939.4997612675
590  ekin = 10938.4738364352 | epot = 1.02592484088883 | etot = 10939.4997612761
591  ekin = 10938.4730191175 | epot = 1.02674216703273 | etot = 10939.4997612846
592  ekin = 10938.4722110815 | epot = 1.02755021150446 | etot = 10939.499761293
593  ekin = 10938.4714124625 | epot = 1.02834883892628 | etot = 10939.4997613015
594  ekin = 10938.4706233954 | epot = 1.02913791447891 | etot = 10939.4997613098
595  ekin = 10938.4698440143 | epot = 1.02991730391911 | etot = 10939.4997613182
i (nlocal_bonus - 1): 5, j (ellipsoid[i]): 0
ellipsoid[bonus[nlocal_bonus-1].ilocal]: 0
bonus[ellipsoid[i]].ilocal: 0
ellipsoid[j]: 0
596  ekin = 10938.4690744529 | epot = 1.03068687359729 | etot = 10939.4997613265
597  ekin = 10938.4683148444 | epot = 1.03144649047512 | etot = 10939.4997613348
598  ekin = 10938.4675653209 | epot = 1.03219602214313 | etot = 10939.4997613431
599  ekin = 10938.4668260145 | epot = 1.03293533683825 | etot = 10939.4997613513
600  ekin = 10938.466097056 | epot = 1.03366430346135 | etot = 10939.4997613595
601  ekin = 10938.465378576 | epot = 1.03438279159476 | etot = 10939.4997613676
602  ekin = 10938.4646707042 | epot = 1.03509067151974 | etot = 10939.4997613757
603  ekin = 10938.4639735695 | epot = 1.03578781423389 | etot = 10939.4997613837
604  ekin = 10938.4632873002 | epot = 1.03647409146862 | etot = 10939.4997613917
605  ekin = 10938.462612024 | epot = 1.03714937570643 | etot = 10939.4997613997
606  ekin = 10938.4619478674 | epot = 1.03781354019828 | etot = 10939.4997614076
607  ekin = 10938.4612949564 | epot = 1.03846645898081 | etot = 10939.4997614154
608  ekin = 10938.4606534163 | epot = 1.03910800689354 | etot = 10939.4997614232
609  ekin = 10938.4600233714 | epot = 1.03973805959606 | etot = 10939.499761431
610  ekin = 10938.4594049451 | epot = 1.04035649358505 | etot = 10939.4997614387
611  ekin = 10938.4587982601 | epot = 1.04096318621135 | etot = 10939.4997614463
612  ekin = 10938.4582034382 | epot = 1.0415580156969 | etot = 10939.4997614539
613  ekin = 10938.4576206003 | epot = 1.04214086115157 | etot = 10939.4997614614
614  ekin = 10938.4570498663 | epot = 1.04271160259001 | etot = 10939.4997614689
615  ekin = 10938.4564913554 | epot = 1.04327012094832 | etot = 10939.4997614763
616  ekin = 10938.4559451856 | epot = 1.04381629810072 | etot = 10939.4997614837
617  ekin = 10938.4554114741 | epot = 1.04435001687606 | etot = 10939.499761491
618  ekin = 10938.4548903372 | epot = 1.04487116107427 | etot = 10939.4997614983
619  ekin = 10938.45438189 | epot = 1.04537961548274 | etot = 10939.4997615054
620  ekin = 10938.4538862467 | epot = 1.04587526589252 | etot = 10939.4997615126
621  ekin = 10938.4534035205 | epot = 1.04635799911454 | etot = 10939.4997615196
622  ekin = 10938.4529338236 | epot = 1.04682770299559 | etot = 10939.4997615266
623  ekin = 10938.4524772671 | epot = 1.04728426643423 | etot = 10939.4997615335
624  ekin = 10938.452033961 | epot = 1.0477275793967 | etot = 10939.4997615404
625  ekin = 10938.4516040142 | epot = 1.04815753293252 | etot = 10939.4997615472
626  ekin = 10938.4511875347 | epot = 1.04857401919008 | etot = 10939.4997615539
627  ekin = 10938.4507846291 | epot = 1.04897693143213 | etot = 10939.4997615606
628  ekin = 10938.4503954031 | epot = 1.04936616405104 | etot = 10939.4997615671
629  ekin = 10938.4500199611 | epot = 1.049741612584 | etot = 10939.4997615736
630  ekin = 10938.4496584064 | epot = 1.05010317372806 | etot = 10939.4997615801
631  ekin = 10938.4493108411 | epot = 1.05045074535504 | etot = 10939.4997615864
632  ekin = 10938.4489773662 | epot = 1.05078422652628 | etot = 10939.4997615927
633  ekin = 10938.4486580814 | epot = 1.05110351750724 | etot = 10939.4997615989
634  ekin = 10938.4483530853 | epot = 1.05140851978197 | etot = 10939.4997616051
635  ekin = 10938.4480624751 | epot = 1.0516991360674 | etot = 10939.4997616111
636  ekin = 10938.4477863468 | epot = 1.05197527032747 | etot = 10939.4997616171
637  ekin = 10938.4475247952 | epot = 1.05223682778712 | etot = 10939.499761623
638  ekin = 10938.4472779139 | epot = 1.05248371494612 | etot = 10939.4997616288
639  ekin = 10938.447045795 | epot = 1.05271583959266 | etot = 10939.4997616346
640  ekin = 10938.4468285294 | epot = 1.05293311081688 | etot = 10939.4997616402
641  ekin = 10938.4466262068 | epot = 1.05313543902411 | etot = 10939.4997616458
642  ekin = 10938.4464389154 | epot = 1.05332273594802 | etot = 10939.4997616513
643  ekin = 10938.4462667421 | epot = 1.0534949146635 | etot = 10939.4997616567
644  ekin = 10938.4461097724 | epot = 1.05365188959945 | etot = 10939.499761662
645  ekin = 10938.4459680907 | epot = 1.05379357655134 | etot = 10939.4997616673
646  ekin = 10938.4458417797 | epot = 1.05391989269351 | etot = 10939.4997616724
647  ekin = 10938.4457309209 | epot = 1.05403075659138 | etot = 10939.4997616775
648  ekin = 10938.4456355942 | epot = 1.0541260882134 | etot = 10939.4997616825
649  ekin = 10938.4455558784 | epot = 1.05420580894282 | etot = 10939.4997616873
650  ekin = 10938.4454918505 | epot = 1.05426984158924 | etot = 10939.4997616921
651  ekin = 10938.4454435864 | epot = 1.05431811039992 | etot = 10939.4997616968
652  ekin = 10938.4454111604 | epot = 1.05435054107101 | etot = 10939.4997617015
653  ekin = 10938.4453946452 | epot = 1.05436706075838 | etot = 10939.499761706
654  ekin = 10938.4453941123 | epot = 1.05436759808834 | etot = 10939.4997617104
655  ekin = 10938.4454096316 | epot = 1.05435208316819 | etot = 10939.4997617147
656  ekin = 10938.4454412714 | epot = 1.05432044759639 | etot = 10939.499761719
657  ekin = 10938.4454890987 | epot = 1.05427262447269 | etot = 10939.4997617231
658  ekin = 10938.4455531788 | epot = 1.05420854840785 | etot = 10939.4997617272
659  ekin = 10938.4456335756 | epot = 1.05412815553328 | etot = 10939.4997617311
660  ekin = 10938.4457303515 | epot = 1.05403138351034 | etot = 10939.499761735
661  ekin = 10938.4458435672 | epot = 1.05391817153949 | etot = 10939.4997617388
662  ekin = 10938.445973282 | epot = 1.05378846036916 | etot = 10939.4997617424
663  ekin = 10938.4461195537 | epot = 1.05364219230434 | etot = 10939.499761746
664  ekin = 10938.4462824382 | epot = 1.05347931121498 | etot = 10939.4997617495
665  ekin = 10938.4464619903 | epot = 1.0532997625442 | etot = 10939.4997617528
666  ekin = 10938.4466582628 | epot = 1.05310349331606 | etot = 10939.4997617561
667  ekin = 10938.4468713071 | epot = 1.05289045214332 | etot = 10939.4997617593
668  ekin = 10938.4471011731 | epot = 1.05266058923477 | etot = 10939.4997617623
669  ekin = 10938.4473479089 | epot = 1.0524138564024 | etot = 10939.4997617653
670  ekin = 10938.4476115611 | epot = 1.0521502070683 | etot = 10939.4997617682
671  ekin = 10938.4478921747 | epot = 1.05186959627123 | etot = 10939.4997617709
672  ekin = 10938.4481897929 | epot = 1.05157198067305 | etot = 10939.4997617736
673  ekin = 10938.4485044576 | epot = 1.05125731856481 | etot = 10939.4997617762
674  ekin = 10938.4488362087 | epot = 1.05092556987258 | etot = 10939.4997617786
675  ekin = 10938.4491850848 | epot = 1.05057669616306 | etot = 10939.499761781
676  ekin = 10938.4495511226 | epot = 1.05021066064886 | etot = 10939.4997617832
677  ekin = 10938.4499343572 | epot = 1.04982742819362 | etot = 10939.4997617854
678  ekin = 10938.4503348221 | epot = 1.04942696531669 | etot = 10939.4997617874
679  ekin = 10938.4507525491 | epot = 1.04900924019776 | etot = 10939.4997617893
680  ekin = 10938.4511875685 | epot = 1.04857422268102 | etot = 10939.4997617912
681  ekin = 10938.4516399086 | epot = 1.04812188427914 | etot = 10939.4997617929
682  ekin = 10938.4521095964 | epot = 1.04765219817698 | etot = 10939.4997617945
683  ekin = 10938.4525966568 | epot = 1.04716513923504 | etot = 10939.499761796
684  ekin = 10938.4531011135 | epot = 1.04666068399255 | etot = 10939.4997617975
685  ekin = 10938.4536229881 | epot = 1.04613881067037 | etot = 10939.4997617988
686  ekin = 10938.4541623008 | epot = 1.04559949917362 | etot = 10939.4997618
687  ekin = 10938.45471907 | epot = 1.04504273109395 | etot = 10939.4997618011
688  ekin = 10938.4552933123 | epot = 1.04446848971157 | etot = 10939.4997618021
689  ekin = 10938.4558850429 | epot = 1.04387675999706 | etot = 10939.4997618029
690  ekin = 10938.4564942751 | epot = 1.04326752861283 | etot = 10939.4997618037
691  ekin = 10938.4571210205 | epot = 1.04264078391431 | etot = 10939.4997618044
692  ekin = 10938.457765289 | epot = 1.04199651595086 | etot = 10939.4997618049
693  ekin = 10938.4584270889 | epot = 1.04133471646649 | etot = 10939.4997618054
694  ekin = 10938.4591064269 | epot = 1.04065537890008 | etot = 10939.4997618058
695  ekin = 10938.4598033076 | epot = 1.03995849838564 | etot = 10939.499761806
696  ekin = 10938.4605177344 | epot = 1.03924407175197 | etot = 10939.4997618061
697  ekin = 10938.4612497086 | epot = 1.03851209752221 | etot = 10939.4997618062
698  ekin = 10938.4619992302 | epot = 1.03776257591315 | etot = 10939.4997618061
699  ekin = 10938.4627662971 | epot = 1.0369955088341 | etot = 10939.4997618059
700  ekin = 10938.4635509057 | epot = 1.03621089988562 | etot = 10939.4997618056
701  ekin = 10938.4643530509 | epot = 1.0354087543579 | etot = 10939.4997618052
702  ekin = 10938.4651727255 | epot = 1.03458907922891 | etot = 10939.4997618047
703  ekin = 10938.466009921 | epot = 1.03375188316223 | etot = 10939.4997618041
704  ekin = 10938.4668646269 | epot = 1.0328971765046 | etot = 10939.4997618034
705  ekin = 10938.4677368313 | epot = 1.03202497128321 | etot = 10939.4997618026
706  ekin = 10938.4686265205 | epot = 1.03113528120272 | etot = 10939.4997618017
707  ekin = 10938.469533679 | epot = 1.03022812164202 | etot = 10939.4997618007
708  ekin = 10938.4704582899 | epot = 1.02930350965063 | etot = 10939.4997617995
709  ekin = 10938.4714003344 | epot = 1.02836146394499 | etot = 10939.4997617983
710  ekin = 10938.4723597921 | epot = 1.02740200490425 | etot = 10939.499761797
711  ekin = 10938.473336641 | epot = 1.02642515456598 | etot = 10939.4997617955
712  ekin = 10938.4743308574 | epot = 1.02543093662157 | etot = 10939.499761794
713  ekin = 10938.4753424159 | epot = 1.02441937641127 | etot = 10939.4997617924
714  ekin = 10938.4763712897 | epot = 1.02339050091905 | etot = 10939.4997617906
715  ekin = 10938.47741745 | epot = 1.02234433876719 | etot = 10939.4997617888
716  ekin = 10938.4784808666 | epot = 1.02128092021056 | etot = 10939.4997617868
717  ekin = 10938.4795615076 | epot = 1.02020027713067 | etot = 10939.4997617848
718  ekin = 10938.4806593396 | epot = 1.0191024430294 | etot = 10939.4997617826
719  ekin = 10938.4817743273 | epot = 1.01798745302266 | etot = 10939.4997617803
720  ekin = 10938.4829064342 | epot = 1.01685534383346 | etot = 10939.499761778
721  ekin = 10938.4840556217 | epot = 1.01570615378505 | etot = 10939.4997617755
722  ekin = 10938.4852218502 | epot = 1.0145399227936 | etot = 10939.499761773
723  ekin = 10938.486405078 | epot = 1.01335669236074 | etot = 10939.4997617703
724  ekin = 10938.487605262 | epot = 1.01215650556579 | etot = 10939.4997617676
725  ekin = 10938.4888223577 | epot = 1.01093940705773 | etot = 10939.4997617647
726  ekin = 10938.4900563187 | epot = 1.009705443047 | etot = 10939.4997617618
727  ekin = 10938.4913070974 | epot = 1.00845466129695 | etot = 10939.4997617587
728  ekin = 10938.4925746445 | epot = 1.00718711111514 | etot = 10939.4997617556
729  ekin = 10938.493858909 | epot = 1.00590284334437 | etot = 10939.4997617524
730  ekin = 10938.4951598387 | epot = 1.00460191035344 | etot = 10939.4997617491
731  ekin = 10938.4964773796 | epot = 1.0032843660277 | etot = 10939.4997617456
732  ekin = 10938.4978114764 | epot = 1.00195026575945 | etot = 10939.4997617421
733  ekin = 10938.4991620721 | epot = 1.00059966643788 | etot = 10939.4997617385
734  ekin = 10938.5005291084 | epot = 0.999232626439097 | etot = 10939.4997617348
735  ekin = 10938.5019125254 | epot = 0.997849205615648 | etot = 10939.499761731
736  ekin = 10938.5033122619 | epot = 0.99644946528598 | etot = 10939.4997617271
737  ekin = 10938.504728255 | epot = 0.995033468223666 | etot = 10939.4997617232
738  ekin = 10938.5061604405 | epot = 0.993601278646332 | etot = 10939.4997617191
739  ekin = 10938.5076087528 | epot = 0.992152962204469 | etot = 10939.499761715
740  ekin = 10938.5090731248 | epot = 0.990688585969989 | etot = 10939.4997617107
741  ekin = 10938.510553488 | epot = 0.989208218424559 | etot = 10939.4997617064
742  ekin = 10938.5120497726 | epot = 0.987711929447765 | etot = 10939.499761702
743  ekin = 10938.5135619072 | epot = 0.98619979030507 | etot = 10939.4997616975
i (nlocal_bonus - 1): 4, j (ellipsoid[i]): 2
ellipsoid[bonus[nlocal_bonus-1].ilocal]: 2
bonus[ellipsoid[i]].ilocal: 2
ellipsoid[j]: 2
744  ekin = 10938.5150898193 | epot = 0.984671873635536 | etot = 10939.4997616929
745  ekin = 10938.5166334348 | epot = 0.983128253439435 | etot = 10939.4997616883
746  ekin = 10938.5181926785 | epot = 0.981569005065552 | etot = 10939.4997616835
747  ekin = 10938.5197674735 | epot = 0.979994205198379 | etot = 10939.4997616787
748  ekin = 10938.521357742 | epot = 0.978403931845167 | etot = 10939.4997616738
749  ekin = 10938.5229634045 | epot = 0.976798264322648 | etot = 10939.4997616688
750  ekin = 10938.5245843805 | epot = 0.975177283243718 | etot = 10939.4997616638
751  ekin = 10938.5262205881 | epot = 0.973541070503931 | etot = 10939.4997616586
752  ekin = 10938.5278719441 | epot = 0.971889709267692 | etot = 10939.4997616534
753  ekin = 10938.5295383642 | epot = 0.970223283954473 | etot = 10939.4997616481
754  ekin = 10938.5312197625 | epot = 0.968541880224724 | etot = 10939.4997616427
755  ekin = 10938.5329160523 | epot = 0.966845584965664 | etot = 10939.4997616373
756  ekin = 10938.5346271455 | epot = 0.965134486276967 | etot = 10939.4997616318
757  ekin = 10938.5363529527 | epot = 0.963408673456174 | etot = 10939.4997616262
758  ekin = 10938.5380933835 | epot = 0.96166823698413 | etot = 10939.4997616205
759  ekin = 10938.5398483463 | epot = 0.959913268510052 | etot = 10939.4997616148
760  ekin = 10938.5416177481 | epot = 0.958143860836711 | etot = 10939.499761609
761  ekin = 10938.5434014952 | epot = 0.956360107905239 | etot = 10939.4997616031
762  ekin = 10938.5451994924 | epot = 0.954562104779978 | etot = 10939.4997615972
763  ekin = 10938.5470116435 | epot = 0.952749947633063 | etot = 10939.4997615912
764  ekin = 10938.5488378514 | epot = 0.950923733729008 | etot = 10939.4997615851
765  ekin = 10938.5506780175 | epot = 0.949083561409038 | etot = 10939.4997615789
766  ekin = 10938.5525320427 | epot = 0.947229530075426 | etot = 10939.4997615727
767  ekin = 10938.5543998263 | epot = 0.945361740175579 | etot = 10939.4997615665
768  ekin = 10938.556281267 | epot = 0.94348029318615 | etot = 10939.4997615602
769  ekin = 10938.5581762622 | epot = 0.941585291596959 | etot = 10939.4997615538
770  ekin = 10938.5600847084 | epot = 0.939676838894847 | etot = 10939.4997615473
771  ekin = 10938.5620065013 | epot = 0.937755039547364 | etot = 10939.4997615408
772  ekin = 10938.5639415353 | epot = 0.935819998986471 | etot = 10939.4997615342
773  ekin = 10938.565889704 | epot = 0.93387182359203 | etot = 10939.4997615276
774  ekin = 10938.5678509003 | epot = 0.931910620675311 | etot = 10939.499761521
775  ekin = 10938.5698250158 | epot = 0.929936498462351 | etot = 10939.4997615142
776  ekin = 10938.5718119414 | epot = 0.927949566077221 | etot = 10939.4997615075
777  ekin = 10938.5738115671 | epot = 0.925949933525298 | etot = 10939.4997615006
778  ekin = 10938.5758237821 | epot = 0.923937711676357 | etot = 10939.4997614937
779  ekin = 10938.5778484746 | epot = 0.921913012247698 | etot = 10939.4997614868
780  ekin = 10938.579885532 | epot = 0.919875947787103 | etot = 10939.4997614798
781  ekin = 10938.5819348411 | epot = 0.917826631655827 | etot = 10939.4997614728
782  ekin = 10938.5839962877 | epot = 0.915765178011489 | etot = 10939.4997614657
783  ekin = 10938.5860697568 | epot = 0.913691701790853 | etot = 10939.4997614586
784  ekin = 10938.5881551327 | epot = 0.911606318692729 | etot = 10939.4997614514
785  ekin = 10938.5902522991 | epot = 0.909509145160616 | etot = 10939.4997614442
786  ekin = 10938.5923611386 | epot = 0.907400298365439 | etot = 10939.499761437
787  ekin = 10938.5944815335 | epot = 0.905279896188234 | etot = 10939.4997614297
788  ekin = 10938.5966133652 | epot = 0.903148057202734 | etot = 10939.4997614224
789  ekin = 10938.5987565143 | epot = 0.90100490065805 | etot = 10939.499761415
790  ekin = 10938.6009108611 | epot = 0.898850546461139 | etot = 10939.4997614076
791  ekin = 10938.603076285 | epot = 0.896685115159441 | etot = 10939.4997614002
792  ekin = 10938.6052526648 | epot = 0.89450872792338 | etot = 10939.4997613927
793  ekin = 10938.6074398786 | epot = 0.892321506528881 | etot = 10939.4997613852
794  ekin = 10938.6096378043 | epot = 0.890123573339879 | etot = 10939.4997613776
795  ekin = 10938.6118463188 | epot = 0.887915051290819 | etot = 10939.4997613701
796  ekin = 10938.6140652986 | epot = 0.88569606386914 | etot = 10939.4997613624
797  ekin = 10938.6162946197 | epot = 0.8834667350978 | etot = 10939.4997613548
798  ekin = 10938.6185341576 | epot = 0.881227189517741 | etot = 10939.4997613472
799  ekin = 10938.6207837873 | epot = 0.878977552170428 | etot = 10939.4997613395
800  ekin = 10938.6230433832 | epot = 0.876717948580338 | etot = 10939.4997613318
801  ekin = 10938.6253128193 | epot = 0.874448504737513 | etot = 10939.499761324
802  ekin = 10938.6275919692 | epot = 0.872169347080092 | etot = 10939.4997613162
803  ekin = 10938.629880706 | epot = 0.869880602476862 | etot = 10939.4997613085
804  ekin = 10938.6321789024 | epot = 0.867582398209911 | etot = 10939.4997613007
805  ekin = 10938.6344864309 | epot = 0.865274861957193 | etot = 10939.4997612928
806  ekin = 10938.6368031632 | epot = 0.862958121775217 | etot = 10939.499761285
807  ekin = 10938.639128971 | epot = 0.860632306081727 | etot = 10939.4997612771
808  ekin = 10938.6414637256 | epot = 0.858297543638435 | etot = 10939.4997612692
809  ekin = 10938.6438072978 | epot = 0.855953963533764 | etot = 10939.4997612613
810  ekin = 10938.6461595583 | epot = 0.853601695165712 | etot = 10939.4997612534
811  ekin = 10938.6485203773 | epot = 0.851240868224677 | etot = 10939.4997612455
812  ekin = 10938.6508896249 | epot = 0.848871612676387 | etot = 10939.4997612376
813  ekin = 10938.6532671709 | epot = 0.846494058744851 | etot = 10939.4997612296
814  ekin = 10938.6556528847 | epot = 0.844108336895433 | etot = 10939.4997612216
815  ekin = 10938.6580466359 | epot = 0.841714577817887 | etot = 10939.4997612137
816  ekin = 10938.6604482933 | epot = 0.839312912409545 | etot = 10939.4997612057
817  ekin = 10938.6628577259 | epot = 0.836903471758517 | etot = 10939.4997611977
i (nlocal_bonus - 1): 3, j (ellipsoid[i]): 3
ellipsoid[bonus[nlocal_bonus-1].ilocal]: 3
bonus[ellipsoid[i]].ilocal: 3
ellipsoid[j]: 3
818  ekin = 10938.6652748026 | epot = 0.834486387127 | etot = 10939.4997611897
819  ekin = 10938.6676993918 | epot = 0.832061789934616 | etot = 10939.4997611817
820  ekin = 10938.670131362 | epot = 0.829629811741875 | etot = 10939.4997611737
821  ekin = 10938.6725705815 | epot = 0.827190584233679 | etot = 10939.4997611657
822  ekin = 10938.6750169185 | epot = 0.824744239202931 | etot = 10939.4997611577
823  ekin = 10938.6774702412 | epot = 0.82229090853421 | etot = 10939.4997611497
824  ekin = 10938.6799304175 | epot = 0.819830724187535 | etot = 10939.4997611417
825  ekin = 10938.6823973155 | epot = 0.817363818182259 | etot = 10939.4997611337
826  ekin = 10938.6848708031 | epot = 0.814890322580971 | etot = 10939.4997611257
827  ekin = 10938.6873507482 | epot = 0.812410369473599 | etot = 10939.4997611177
828  ekin = 10938.6898370187 | epot = 0.809924090961494 | etot = 10939.4997611097
829  ekin = 10938.6923294826 | epot = 0.80743161914173 | etot = 10939.4997611017
830  ekin = 10938.6948280076 | epot = 0.804933086091445 | etot = 10939.4997610937
831  ekin = 10938.6973324619 | epot = 0.802428623852246 | etot = 10939.4997610857
832  ekin = 10938.6998427134 | epot = 0.79991836441484 | etot = 10939.4997610778
833  ekin = 10938.7023586301 | epot = 0.79740243970364 | etot = 10939.4997610698
834  ekin = 10938.7048800803 | epot = 0.794880981561606 | etot = 10939.4997610619
835  ekin = 10938.7074069322 | epot = 0.792354121735081 | etot = 10939.4997610539
836  ekin = 10938.7099390541 | epot = 0.789821991858833 | etot = 10939.499761046
837  ekin = 10938.7124763147 | epot = 0.787284723441209 | etot = 10939.4997610381
838  ekin = 10938.7150185823 | epot = 0.784742447849329 | etot = 10939.4997610302
839  ekin = 10938.717565726 | epot = 0.782195296294529 | etot = 10939.4997610223
840  ekin = 10938.7201176146 | epot = 0.779643399817805 | etot = 10939.4997610144
841  ekin = 10938.7226741173 | epot = 0.77708688927546 | etot = 10939.4997610066
842  ekin = 10938.7252351034 | epot = 0.774525895324859 | etot = 10939.4997609988
843  ekin = 10938.7278004425 | epot = 0.771960548410284 | etot = 10939.4997609909
844  ekin = 10938.7303700044 | epot = 0.769390978749001 | etot = 10939.4997609832
845  ekin = 10938.7329436591 | epot = 0.766817316317354 | etot = 10939.4997609754
846  ekin = 10938.7355212768 | epot = 0.764239690837107 | etot = 10939.4997609676
847  ekin = 10938.7381027281 | epot = 0.761658231761779 | etot = 10939.4997609599
848  ekin = 10938.7406878839 | epot = 0.759073068263304 | etot = 10939.4997609522
849  ekin = 10938.7432766153 | epot = 0.756484329218664 | etot = 10939.4997609445
850  ekin = 10938.7458687936 | epot = 0.753892143196734 | etot = 10939.4997609368
851  ekin = 10938.7484642908 | epot = 0.751296638445304 | etot = 10939.4997609292
852  ekin = 10938.7510629787 | epot = 0.748697942878176 | etot = 10939.4997609216
853  ekin = 10938.75366473 | epot = 0.746096184062446 | etot = 10939.499760914
854  ekin = 10938.7562694173 | epot = 0.743491489205908 | etot = 10939.4997609065
855  ekin = 10938.7588769138 | epot = 0.740883985144666 | etot = 10939.4997608989
856  ekin = 10938.7614870931 | epot = 0.738273798330806 | etot = 10939.4997608914
857  ekin = 10938.7640998292 | epot = 0.735661054820289 | etot = 10939.499760884
858  ekin = 10938.7667149963 | epot = 0.733045880260972 | etot = 10939.4997608765
859  ekin = 10938.7693324693 | epot = 0.730428399880779 | etot = 10939.4997608691
860  ekin = 10938.7719521233 | epot = 0.727808738476018 | etot = 10939.4997608618
861  ekin = 10938.774573834 | epot = 0.725187020399876 | etot = 10939.4997608544
862  ekin = 10938.7771974776 | epot = 0.722563369551063 | etot = 10939.4997608471
863  ekin = 10938.7798229305 | epot = 0.719937909362569 | etot = 10939.4997608399
864  ekin = 10938.7824500698 | epot = 0.717310762790658 | etot = 10939.4997608326
865  ekin = 10938.7850787731 | epot = 0.714682052303942 | etot = 10939.4997608254
866  ekin = 10938.7877089184 | epot = 0.712051899872679 | etot = 10939.4997608183
867  ekin = 10938.7903403842 | epot = 0.709420426958183 | etot = 10939.4997608111
868  ekin = 10938.7929730496 | epot = 0.706787754502417 | etot = 10939.4997608041
869  ekin = 10938.7956067941 | epot = 0.704154002917724 | etot = 10939.499760797
870  ekin = 10938.7982414979 | epot = 0.701519292076734 | etot = 10939.49976079
871  ekin = 10938.8008770417 | epot = 0.698883741302486 | etot = 10939.499760783
872  ekin = 10938.8035133067 | epot = 0.69624746935859 | etot = 10939.4997607761
873  ekin = 10938.8061501748 | epot = 0.693610594439658 | etot = 10939.4997607692
874  ekin = 10938.8087875282 | epot = 0.690973234161844 | etot = 10939.4997607623
875  ekin = 10938.81142525 | epot = 0.688335505553599 | etot = 10939.4997607555
876  ekin = 10938.8140632237 | epot = 0.685697525046499 | etot = 10939.4997607488
877  ekin = 10938.8167013336 | epot = 0.683059408466336 | etot = 10939.4997607421
878  ekin = 10938.8193394643 | epot = 0.680421271024307 | etot = 10939.4997607354
879  ekin = 10938.8219775014 | epot = 0.677783227308391 | etot = 10939.4997607287
880  ekin = 10938.8246153309 | epot = 0.675145391274907 | etot = 10939.4997607222
881  ekin = 10938.8272528394 | epot = 0.672507876240172 | etot = 10939.4997607156
882  ekin = 10938.8298899142 | epot = 0.669870794872405 | etot = 10939.4997607091
883  ekin = 10938.8325264435 | epot = 0.667234259183755 | etot = 10939.4997607027
884  ekin = 10938.8351623157 | epot = 0.664598380522469 | etot = 10939.4997606962
885  ekin = 10938.8377974203 | epot = 0.661963269565261 | etot = 10939.4997606899
886  ekin = 10938.8404316473 | epot = 0.659329036309874 | etot = 10939.4997606836
887  ekin = 10938.8430648872 | epot = 0.656695790067682 | etot = 10939.4997606773
888  ekin = 10938.8456970316 | epot = 0.654063639456627 | etot = 10939.4997606711
889  ekin = 10938.8483279725 | epot = 0.651432692394146 | etot = 10939.4997606649
890  ekin = 10938.8509576027 | epot = 0.648803056090417 | etot = 10939.4997606588
891  ekin = 10938.8535858157 | epot = 0.646174837041657 | etot = 10939.4997606527
i (nlocal_bonus - 1): 2, j (ellipsoid[i]): 2
ellipsoid[bonus[nlocal_bonus-1].ilocal]: 2
bonus[ellipsoid[i]].ilocal: 2
ellipsoid[j]: 2
892  ekin = 10938.8562125057 | epot = 0.643548141023639 | etot = 10939.4997606467
893  ekin = 10938.8588375676 | epot = 0.640923073085335 | etot = 10939.4997606407
894  ekin = 10938.8614608973 | epot = 0.638299737542739 | etot = 10939.4997606348
895  ekin = 10938.864082391 | epot = 0.635678237972872 | etot = 10939.4997606289
896  ekin = 10938.8667019459 | epot = 0.633058677207896 | etot = 10939.4997606231
897  ekin = 10938.86931946 | epot = 0.630441157329438 | etot = 10939.4997606173
898  ekin = 10938.871934832 | epot = 0.627825779663056 | etot = 10939.4997606116
899  ekin = 10938.8745479612 | epot = 0.625212644772832 | etot = 10939.499760606
900  ekin = 10938.8771587479 | epot = 0.622601852456165 | etot = 10939.4997606004
901  ekin = 10938.8797670931 | epot = 0.61999350173873 | etot = 10939.4997605948
902  ekin = 10938.8823728984 | epot = 0.617387690869554 | etot = 10939.4997605893
903  ekin = 10938.8849760665 | epot = 0.614784517316241 | etot = 10939.4997605838
904  ekin = 10938.8875765007 | epot = 0.612184077760419 | etot = 10939.4997605784
905  ekin = 10938.890174105 | epot = 0.609586468093272 | etot = 10939.4997605731
906  ekin = 10938.8927687844 | epot = 0.606991783411272 | etot = 10939.4997605678
907  ekin = 10938.8953604446 | epot = 0.60440011801203 | etot = 10939.4997605626
908  ekin = 10938.897948992 | epot = 0.60181156539033 | etot = 10939.4997605574
909  ekin = 10938.900534334 | epot = 0.599226218234267 | etot = 10939.4997605523
910  ekin = 10938.9031163788 | epot = 0.596644168421627 | etot = 10939.4997605472
911  ekin = 10938.9056950351 | epot = 0.594065507016298 | etot = 10939.4997605422
912  ekin = 10938.9082702129 | epot = 0.591490324264914 | etot = 10939.4997605372
913  ekin = 10938.9108418227 | epot = 0.588918709593638 | etot = 10939.4997605323
914  ekin = 10938.9134097758 | epot = 0.586350751605043 | etot = 10939.4997605274
915  ekin = 10938.9159739846 | epot = 0.583786538075181 | etot = 10939.4997605226
916  ekin = 10938.9185343619 | epot = 0.581226155950809 | etot = 10939.4997605179
917  ekin = 10938.9210908219 | epot = 0.578669691346721 | etot = 10939.4997605132
918  ekin = 10938.923643279 | epot = 0.57611722954324 | etot = 10939.4997605086
919  ekin = 10938.926191649 | epot = 0.57356885498383 | etot = 10939.499760504
920  ekin = 10938.9287358482 | epot = 0.571024651272892 | etot = 10939.4997604995
921  ekin = 10938.9312757939 | epot = 0.568484701173696 | etot = 10939.499760495
922  ekin = 10938.933811404 | epot = 0.565949086606385 | etot = 10939.4997604906
923  ekin = 10938.9363425976 | epot = 0.563417888646182 | etot = 10939.4997604863
924  ekin = 10938.9388692945 | epot = 0.560891187521728 | etot = 10939.499760482
925  ekin = 10938.9413914151 | epot = 0.558369062613509 | etot = 10939.4997604777
926  ekin = 10938.9439088811 | epot = 0.555851592452496 | etot = 10939.4997604736
927  ekin = 10938.9464216147 | epot = 0.553338854718802 | etot = 10939.4997604694
928  ekin = 10938.9489295391 | epot = 0.55083092624061 | etot = 10939.4997604654
929  ekin = 10938.9514325784 | epot = 0.548327882993084 | etot = 10939.4997604614
930  ekin = 10938.9539306573 | epot = 0.545829800097564 | etot = 10939.4997604574
931  ekin = 10938.9564237017 | epot = 0.543336751820726 | etot = 10939.4997604535
932  ekin = 10938.9589116381 | epot = 0.54084881157401 | etot = 10939.4997604497
933  ekin = 10938.961394394 | epot = 0.538366051913083 | etot = 10939.4997604459
934  ekin = 10938.9638718976 | epot = 0.535888544537457 | etot = 10939.4997604422
935  ekin = 10938.9663440782 | epot = 0.533416360290237 | etot = 10939.4997604385
936  ekin = 10938.9688108657 | epot = 0.53094956915798 | etot = 10939.4997604349
937  ekin = 10938.9712721911 | epot = 0.528488240270651 | etot = 10939.4997604313
938  ekin = 10938.9737279859 | epot = 0.526032441901753 | etot = 10939.4997604278
939  ekin = 10938.9761781829 | epot = 0.523582241468524 | etot = 10939.4997604244
940  ekin = 10938.9786227155 | epot = 0.521137705532245 | etot = 10939.499760421
941  ekin = 10938.9810615179 | epot = 0.518698899798735 | etot = 10939.4997604177
942  ekin = 10938.9834945253 | epot = 0.516265889118859 | etot = 10939.4997604144
943  ekin = 10938.9859216737 | epot = 0.51383873748922 | etot = 10939.4997604112
944  ekin = 10938.9883429 | epot = 0.511417508052927 | etot = 10939.499760408
945  ekin = 10938.9907581418 | epot = 0.5090022631005 | etot = 10939.4997604049
946  ekin = 10938.9931673378 | epot = 0.506593064070839 | etot = 10939.4997604019
947  ekin = 10938.9955704273 | epot = 0.504189971552332 | etot = 10939.4997603989
948  ekin = 10938.9979673507 | epot = 0.501793045284069 | etot = 10939.4997603959
949  ekin = 10939.0003580489 | epot = 0.499402344157145 | etot = 10939.4997603931
950  ekin = 10939.002742464 | epot = 0.497017926216073 | etot = 10939.4997603902
951  ekin = 10939.0051205388 | epot = 0.494639848660283 | etot = 10939.4997603875
952  ekin = 10939.0074922169 | epot = 0.492268167845736 | etot = 10939.4997603847
[...]
1781  ekin = 10939.4874731891 | epot = 0.0122879936923341 | etot = 10939.4997611828
1782  ekin = 10939.487444939 | epot = 0.0123162437641999 | etot = 10939.4997611828
1783  ekin = 10939.4874167795 | epot = 0.0123444033432327 | etot = 10939.4997611828
1784  ekin = 10939.4873887111 | epot = 0.0123724718105058 | etot = 10939.4997611829
1785  ekin = 10939.4873607344 | epot = 0.0124004485487818 | etot = 10939.4997611829
1786  ekin = 10939.48733285 | epot = 0.0124283329425264 | etot = 10939.499761183
1787  ekin = 10939.4873050586 | epot = 0.0124561243779291 | etot = 10939.499761183
1788  ekin = 10939.4872773608 | epot = 0.0124838222429169 | etot = 10939.499761183
1789  ekin = 10939.4872497571 | epot = 0.0125114259271732 | etot = 10939.4997611831
1790  ekin = 10939.4872222483 | epot = 0.0125389348221532 | etot = 10939.4997611831
1791  ekin = 10939.4871948348 | epot = 0.0125663483211031 | etot = 10939.4997611831
1792  ekin = 10939.4871675174 | epot = 0.0125936658190742 | etot = 10939.4997611832
1793  ekin = 10939.4871402965 | epot = 0.0126208867129403 | etot = 10939.4997611832
1794  ekin = 10939.4871131729 | epot = 0.0126480104014166 | etot = 10939.4997611833
1795  ekin = 10939.487086147 | epot = 0.0126750362850738 | etot = 10939.4997611833
1796  ekin = 10939.4870592196 | epot = 0.0127019637663565 | etot = 10939.4997611833
1797  ekin = 10939.4870323911 | epot = 0.0127287922495981 | etot = 10939.4997611834
1798  ekin = 10939.4870056623 | epot = 0.0127555211410401 | etot = 10939.4997611834
1799  ekin = 10939.4869790336 | epot = 0.0127821498488461 | etot = 10939.4997611834
1800  ekin = 10939.4869525057 | epot = 0.0128086777831194 | etot = 10939.4997611835
1801  ekin = 10939.4869260792 | epot = 0.0128351043559194 | etot = 10939.4997611835
1802  ekin = 10939.4868997546 | epot = 0.012861428981278 | etot = 10939.4997611836
1803  ekin = 10939.4868735325 | epot = 0.0128876510752169 | etot = 10939.4997611836
1804  ekin = 10939.4868474136 | epot = 0.0129137700557622 | etot = 10939.4997611836
1805  ekin = 10939.4868213983 | epot = 0.0129397853429629 | etot = 10939.4997611837
1806  ekin = 10939.4867954873 | epot = 0.0129656963589049 | etot = 10939.4997611837
1807  ekin = 10939.4867696812 | epot = 0.0129915025277288 | etot = 10939.4997611837
1808  ekin = 10939.4867439805 | epot = 0.0130172032756463 | etot = 10939.4997611838
1809  ekin = 10939.4867183858 | epot = 0.0130427980309558 | etot = 10939.4997611838
1810  ekin = 10939.4866928976 | epot = 0.0130682862240571 | etot = 10939.4997611839
1811  ekin = 10939.4866675166 | epot = 0.0130936672874721 | etot = 10939.4997611839
1812  ekin = 10939.4866422433 | epot = 0.013118940655854 | etot = 10939.4997611839
1813  ekin = 10939.4866170782 | epot = 0.013144105766009 | etot = 10939.499761184
1814  ekin = 10939.4865920219 | epot = 0.0131691620569104 | etot = 10939.499761184
1815  ekin = 10939.4865670751 | epot = 0.0131941089697138 | etot = 10939.499761184
1816  ekin = 10939.4865422381 | epot = 0.0132189459477745 | etot = 10939.4997611841
1817  ekin = 10939.4865175117 | epot = 0.0132436724366608 | etot = 10939.4997611841
1818  ekin = 10939.4864928963 | epot = 0.0132682878841726 | etot = 10939.4997611841
1819  ekin = 10939.4864683924 | epot = 0.0132927917403551 | etot = 10939.4997611842
1820  ekin = 10939.4864440007 | epot = 0.0133171834575159 | etot = 10939.4997611842
1821  ekin = 10939.4864197218 | epot = 0.0133414624902388 | etot = 10939.4997611842
1822  ekin = 10939.486395556 | epot = 0.013365628295402 | etot = 10939.4997611843
1823  ekin = 10939.486371504 | epot = 0.0133896803321909 | etot = 10939.4997611843
1824  ekin = 10939.4863475663 | epot = 0.0134136180621149 | etot = 10939.4997611843
1825  ekin = 10939.4863237434 | epot = 0.0134374409490224 | etot = 10939.4997611844
1826  ekin = 10939.486300036 | epot = 0.0134611484591184 | etot = 10939.4997611844
1827  ekin = 10939.4862764444 | epot = 0.0134847400609748 | etot = 10939.4997611844
1828  ekin = 10939.4862529693 | epot = 0.0135082152255511 | etot = 10939.4997611845
1829  ekin = 10939.4862296111 | epot = 0.0135315734262057 | etot = 10939.4997611845
1830  ekin = 10939.4862063704 | epot = 0.0135548141387127 | etot = 10939.4997611845
1831  ekin = 10939.4861832477 | epot = 0.0135779368412775 | etot = 10939.4997611846
1832  ekin = 10939.4861602436 | epot = 0.0136009410145501 | etot = 10939.4997611846
1833  ekin = 10939.4861373585 | epot = 0.0136238261416409 | etot = 10939.4997611846
1834  ekin = 10939.486114593 | epot = 0.0136465917081371 | etot = 10939.4997611847
1835  ekin = 10939.4860919475 | epot = 0.0136692372021143 | etot = 10939.4997611847
1836  ekin = 10939.4860694226 | epot = 0.013691762114155 | etot = 10939.4997611847
1837  ekin = 10939.4860470188 | epot = 0.0137141659373599 | etot = 10939.4997611848
1838  ekin = 10939.4860247366 | epot = 0.0137364481673644 | etot = 10939.4997611848
1839  ekin = 10939.4860025765 | epot = 0.0137586083023538 | etot = 10939.4997611848
1840  ekin = 10939.485980539 | epot = 0.0137806458430751 | etot = 10939.4997611849
1841  ekin = 10939.4859586246 | epot = 0.0138025602928554 | etot = 10939.4997611849
1842  ekin = 10939.4859368338 | epot = 0.0138243511576128 | etot = 10939.4997611849
1843  ekin = 10939.485915167 | epot = 0.0138460179458726 | etot = 10939.499761185
1844  ekin = 10939.4858936248 | epot = 0.0138675601687808 | etot = 10939.499761185
1845  ekin = 10939.4858722077 | epot = 0.0138889773401195 | etot = 10939.499761185
1846  ekin = 10939.4858509161 | epot = 0.013910268976319 | etot = 10939.4997611851
1847  ekin = 10939.4858297505 | epot = 0.0139314345964736 | etot = 10939.4997611851
1848  ekin = 10939.4858087114 | epot = 0.0139524737223548 | etot = 10939.4997611851
1849  ekin = 10939.4857877993 | epot = 0.0139733858784258 | etot = 10939.4997611851
1850  ekin = 10939.4857670146 | epot = 0.0139941705918547 | etot = 10939.4997611852
1851  ekin = 10939.4857463578 | epot = 0.0140148273925296 | etot = 10939.4997611852
1852  ekin = 10939.4857258294 | epot = 0.0140353558130699 | etot = 10939.4997611852
1853  ekin = 10939.4857054299 | epot = 0.0140557553888425 | etot = 10939.4997611853
1854  ekin = 10939.4856851596 | epot = 0.0140760256579743 | etot = 10939.4997611853
1855  ekin = 10939.4856650192 | epot = 0.0140961661613656 | etot = 10939.4997611853
1856  ekin = 10939.4856450089 | epot = 0.0141161764427028 | etot = 10939.4997611854
1857  ekin = 10939.4856251293 | epot = 0.0141360560484741 | etot = 10939.4997611854
1858  ekin = 10939.4856053809 | epot = 0.014155804527981 | etot = 10939.4997611854
1859  ekin = 10939.485585764 | epot = 0.0141754214333522 | etot = 10939.4997611854
1860  ekin = 10939.4855662791 | epot = 0.0141949063195559 | etot = 10939.4997611855
1861  ekin = 10939.4855469267 | epot = 0.0142142587444131 | etot = 10939.4997611855
1862  ekin = 10939.4855277073 | epot = 0.0142334782686124 | etot = 10939.4997611855
1863  ekin = 10939.4855086211 | epot = 0.01425256445572 | etot = 10939.4997611855
1864  ekin = 10939.4854896687 | epot = 0.0142715168721949 | etot = 10939.4997611856
1865  ekin = 10939.4854708505 | epot = 0.0142903350874015 | etot = 10939.4997611856
1866  ekin = 10939.485452167 | epot = 0.0143090186736204 | etot = 10939.4997611856
1867  ekin = 10939.4854336185 | epot = 0.014327567206062 | etot = 10939.4997611857
1868  ekin = 10939.4854152054 | epot = 0.0143459802628803 | etot = 10939.4997611857
1869  ekin = 10939.4853969283 | epot = 0.0143642574251844 | etot = 10939.4997611857
1870  ekin = 10939.4853787875 | epot = 0.0143823982770507 | etot = 10939.4997611857
1871  ekin = 10939.4853607834 | epot = 0.0144004024055345 | etot = 10939.4997611858
1872  ekin = 10939.4853429164 | epot = 0.0144182694006849 | etot = 10939.4997611858
1873  ekin = 10939.485325187 | epot = 0.0144359988555527 | etot = 10939.4997611858
1874  ekin = 10939.4853075955 | epot = 0.0144535903662066 | etot = 10939.4997611858
1875  ekin = 10939.4852901423 | epot = 0.0144710435317431 | etot = 10939.4997611859
1876  ekin = 10939.4852728279 | epot = 0.0144883579542986 | etot = 10939.4997611859
1877  ekin = 10939.4852556527 | epot = 0.0145055332390611 | etot = 10939.4997611859
1878  ekin = 10939.4852386169 | epot = 0.0145225689942827 | etot = 10939.4997611859
1879  ekin = 10939.4852217211 | epot = 0.0145394648312901 | etot = 10939.499761186
1880  ekin = 10939.4852049656 | epot = 0.0145562203644976 | etot = 10939.499761186
1881  ekin = 10939.4851883508 | epot = 0.0145728352114171 | etot = 10939.499761186
1882  ekin = 10939.485171877 | epot = 0.0145893089926703 | etot = 10939.499761186
1883  ekin = 10939.4851555447 | epot = 0.0146056413319997 | etot = 10939.4997611861
1884  ekin = 10939.4851393542 | epot = 0.0146218318562805 | etot = 10939.4997611861
1885  ekin = 10939.4851233059 | epot = 0.01463788019553 | etot = 10939.4997611861
1886  ekin = 10939.4851074002 | epot = 0.0146537859829218 | etot = 10939.4997611861
1887  ekin = 10939.4850916373 | epot = 0.0146695488547919 | etot = 10939.4997611862
1888  ekin = 10939.4850760177 | epot = 0.0146851684506554 | etot = 10939.4997611862
1889  ekin = 10939.4850605418 | epot = 0.0147006444132128 | etot = 10939.4997611862
1890  ekin = 10939.4850452098 | epot = 0.0147159763883613 | etot = 10939.4997611862
1891  ekin = 10939.4850300222 | epot = 0.0147311640252082 | etot = 10939.4997611862
1892  ekin = 10939.4850149793 | epot = 0.0147462069760783 | etot = 10939.4997611863
1893  ekin = 10939.4850000814 | epot = 0.0147611048965252 | etot = 10939.4997611863
1894  ekin = 10939.4849853289 | epot = 0.0147758574453419 | etot = 10939.4997611863
1895  ekin = 10939.484970722 | epot = 0.0147904642845728 | etot = 10939.4997611863
1896  ekin = 10939.4849562613 | epot = 0.0148049250795191 | etot = 10939.4997611864
1897  ekin = 10939.4849419469 | epot = 0.0148192394987545 | etot = 10939.4997611864
1898  ekin = 10939.4849277792 | epot = 0.0148334072141304 | etot = 10939.4997611864
1899  ekin = 10939.4849137585 | epot = 0.0148474279007886 | etot = 10939.4997611864
1900  ekin = 10939.4848998852 | epot = 0.0148613012371702 | etot = 10939.4997611864
1901  ekin = 10939.4848861596 | epot = 0.0148750269050255 | etot = 10939.4997611865
1902  ekin = 10939.4848725819 | epot = 0.0148886045894236 | etot = 10939.4997611865
1903  ekin = 10939.4848591525 | epot = 0.0149020339787602 | etot = 10939.4997611865
1904  ekin = 10939.4848458717 | epot = 0.0149153147647694 | etot = 10939.4997611865
1905  ekin = 10939.4848327399 | epot = 0.0149284466425322 | etot = 10939.4997611865
1906  ekin = 10939.4848197572 | epot = 0.0149414293104851 | etot = 10939.4997611866
1907  ekin = 10939.4848069241 | epot = 0.014954262470429 | etot = 10939.4997611866
1908  ekin = 10939.4847942408 | epot = 0.01496694582754 | etot = 10939.4997611866
1909  ekin = 10939.4847817075 | epot = 0.0149794790903764 | etot = 10939.4997611866
1910  ekin = 10939.4847693247 | epot = 0.0149918619708872 | etot = 10939.4997611866
1911  ekin = 10939.4847570925 | epot = 0.0150040941844233 | etot = 10939.4997611866
1912  ekin = 10939.4847450112 | epot = 0.015016175449743 | etot = 10939.4997611867
1913  ekin = 10939.4847330812 | epot = 0.0150281054890229 | etot = 10939.4997611867
1914  ekin = 10939.4847213027 | epot = 0.0150398840278648 | etot = 10939.4997611867
1915  ekin = 10939.4847096759 | epot = 0.0150515107953058 | etot = 10939.4997611867
1916  ekin = 10939.4846982012 | epot = 0.0150629855238232 | etot = 10939.4997611867
1917  ekin = 10939.4846868788 | epot = 0.0150743079493466 | etot = 10939.4997611867
1918  ekin = 10939.484675709 | epot = 0.0150854778112621 | etot = 10939.4997611868
1919  ekin = 10939.4846646919 | epot = 0.0150964948524237 | etot = 10939.4997611868
1920  ekin = 10939.484653828 | epot = 0.0151073588191591 | etot = 10939.4997611868
1921  ekin = 10939.4846431174 | epot = 0.0151180694612769 | etot = 10939.4997611868
1922  ekin = 10939.4846325603 | epot = 0.0151286265320755 | etot = 10939.4997611868
1923  ekin = 10939.4846221571 | epot = 0.0151390297883496 | etot = 10939.4997611868
1924  ekin = 10939.4846119079 | epot = 0.0151492789903991 | etot = 10939.4997611869
1925  ekin = 10939.484601813 | epot = 0.0151593739020339 | etot = 10939.4997611869
1926  ekin = 10939.4845918726 | epot = 0.0151693142905825 | etot = 10939.4997611869
1927  ekin = 10939.484582087 | epot = 0.0151790999269006 | etot = 10939.4997611869
i (nlocal_bonus - 1): 4, j (ellipsoid[i]): 2
ellipsoid[bonus[nlocal_bonus-1].ilocal]: 2
bonus[ellipsoid[i]].ilocal: 2
ellipsoid[j]: 2
1928  ekin = 10939.4845724563 | epot = 0.0151887305853751 | etot = 10939.4997611869
1929  ekin = 10939.4845629809 | epot = 0.0151982060439321 | etot = 10939.4997611869
1930  ekin = 10939.4845536609 | epot = 0.0152075260840453 | etot = 10939.4997611869
1931  ekin = 10939.4845444965 | epot = 0.0152166904907396 | etot = 10939.499761187
1932  ekin = 10939.4845354879 | epot = 0.0152256990526003 | etot = 10939.499761187
1933  ekin = 10939.4845266354 | epot = 0.015234551561778 | etot = 10939.499761187
1934  ekin = 10939.4845179392 | epot = 0.0152432478139956 | etot = 10939.499761187
1935  ekin = 10939.4845093994 | epot = 0.0152517876085541 | etot = 10939.499761187
1936  ekin = 10939.4845010163 | epot = 0.0152601707483382 | etot = 10939.499761187
1937  ekin = 10939.48449279 | epot = 0.0152683970398247 | etot = 10939.499761187
1938  ekin = 10939.4844847208 | epot = 0.0152764662930854 | etot = 10939.499761187
1939  ekin = 10939.4844768087 | epot = 0.0152843783217946 | etot = 10939.4997611871
1940  ekin = 10939.4844690541 | epot = 0.0152921329432336 | etot = 10939.4997611871
1941  ekin = 10939.4844614571 | epot = 0.0152997299782984 | etot = 10939.4997611871
1942  ekin = 10939.4844540178 | epot = 0.0153071692515024 | etot = 10939.4997611871
1943  ekin = 10939.4844467365 | epot = 0.0153144505909844 | etot = 10939.4997611871
1944  ekin = 10939.4844396133 | epot = 0.015321573828512 | etot = 10939.4997611871
1945  ekin = 10939.4844326483 | epot = 0.015328538799486 | etot = 10939.4997611871
1946  ekin = 10939.4844258418 | epot = 0.0153353453429489 | etot = 10939.4997611871
1947  ekin = 10939.4844191938 | epot = 0.0153419933015858 | etot = 10939.4997611871
1948  ekin = 10939.4844127046 | epot = 0.0153484825217326 | etot = 10939.4997611872
1949  ekin = 10939.4844063743 | epot = 0.0153548128533779 | etot = 10939.4997611872
1950  ekin = 10939.484400203 | epot = 0.0153609841501693 | etot = 10939.4997611872
1951  ekin = 10939.4843941909 | epot = 0.0153669962694166 | etot = 10939.4997611872
1952  ekin = 10939.4843883381 | epot = 0.0153728490720981 | etot = 10939.4997611872
1953  ekin = 10939.4843826448 | epot = 0.0153785424228632 | etot = 10939.4997611872
1954  ekin = 10939.484377111 | epot = 0.0153840761900356 | etot = 10939.4997611872
1955  ekin = 10939.484371737 | epot = 0.0153894502456217 | etot = 10939.4997611872
1956  ekin = 10939.4843665228 | epot = 0.0153946644653089 | etot = 10939.4997611872
1957  ekin = 10939.4843614685 | epot = 0.0153997187284728 | etot = 10939.4997611872
1958  ekin = 10939.4843565743 | epot = 0.0154046129181806 | etot = 10939.4997611872
1959  ekin = 10939.4843518403 | epot = 0.0154093469211934 | etot = 10939.4997611872
1960  ekin = 10939.4843472666 | epot = 0.0154139206279711 | etot = 10939.4997611872
1961  ekin = 10939.4843428533 | epot = 0.015418333932674 | etot = 10939.4997611873
1962  ekin = 10939.4843386005 | epot = 0.0154225867331692 | etot = 10939.4997611873
1963  ekin = 10939.4843345083 | epot = 0.0154266789310294 | etot = 10939.4997611873
1964  ekin = 10939.4843305768 | epot = 0.0154306104315394 | etot = 10939.4997611873
1965  ekin = 10939.4843268061 | epot = 0.0154343811436978 | etot = 10939.4997611873
1966  ekin = 10939.4843231963 | epot = 0.0154379909802195 | etot = 10939.4997611873
1967  ekin = 10939.4843197474 | epot = 0.0154414398575381 | etot = 10939.4997611873
1968  ekin = 10939.4843164596 | epot = 0.01544472769581 | etot = 10939.4997611873
1969  ekin = 10939.4843133329 | epot = 0.0154478544189152 | etot = 10939.4997611873
1970  ekin = 10939.4843103673 | epot = 0.0154508199544602 | etot = 10939.4997611873
1971  ekin = 10939.4843075631 | epot = 0.0154536242337795 | etot = 10939.4997611873
1972  ekin = 10939.4843049201 | epot = 0.0154562671919408 | etot = 10939.4997611873
1973  ekin = 10939.4843024385 | epot = 0.0154587487677424 | etot = 10939.4997611873
1974  ekin = 10939.4843001184 | epot = 0.015461068903718 | etot = 10939.4997611873
1975  ekin = 10939.4842979598 | epot = 0.0154632275461389 | etot = 10939.4997611873
1976  ekin = 10939.4842959627 | epot = 0.0154652246450127 | etot = 10939.4997611873
1977  ekin = 10939.4842941272 | epot = 0.0154670601540877 | etot = 10939.4997611873
1978  ekin = 10939.4842924533 | epot = 0.0154687340308537 | etot = 10939.4997611873
1979  ekin = 10939.4842909411 | epot = 0.015470246236542 | etot = 10939.4997611873
1980  ekin = 10939.4842895906 | epot = 0.0154715967361274 | etot = 10939.4997611873
1981  ekin = 10939.4842884018 | epot = 0.01547278549833 | etot = 10939.4997611873
1982  ekin = 10939.4842873748 | epot = 0.0154738124956161 | etot = 10939.4997611873
1983  ekin = 10939.4842865096 | epot = 0.0154746777041957 | etot = 10939.4997611873
1984  ekin = 10939.4842858062 | epot = 0.0154753811040292 | etot = 10939.4997611873
1985  ekin = 10939.4842852647 | epot = 0.0154759226788235 | etot = 10939.4997611873
1986  ekin = 10939.4842848849 | epot = 0.0154763024160336 | etot = 10939.4997611873
1987  ekin = 10939.484284667 | epot = 0.0154765203068638 | etot = 10939.4997611873
1988  ekin = 10939.484284611 | epot = 0.0154765763462662 | etot = 10939.4997611873
1989  ekin = 10939.4842847168 | epot = 0.0154764705329431 | etot = 10939.4997611873
1990  ekin = 10939.4842849845 | epot = 0.0154762028693448 | etot = 10939.4997611873
1991  ekin = 10939.484285414 | epot = 0.0154757733616723 | etot = 10939.4997611873
1992  ekin = 10939.4842860053 | epot = 0.0154751820198744 | etot = 10939.4997611873
1993  ekin = 10939.4842867585 | epot = 0.0154744288576486 | etot = 10939.4997611873
1994  ekin = 10939.4842876734 | epot = 0.0154735138924404 | etot = 10939.4997611873
1995  ekin = 10939.4842887502 | epot = 0.0154724371454433 | etot = 10939.4997611873
1996  ekin = 10939.4842899887 | epot = 0.015471198641598 | etot = 10939.4997611873
1997  ekin = 10939.4842913889 | epot = 0.0154697984095902 | etot = 10939.4997611873
1998  ekin = 10939.4842929508 | epot = 0.0154682364818522 | etot = 10939.4997611873
1999  ekin = 10939.4842946744 | epot = 0.01546651289456 | etot = 10939.4997611873
2000  ekin = 10939.4842965596 | epot = 0.015464627687634 | etot = 10939.4997611873
      2000   1215.4983      0.0022092325   0              1562.7857      14.471327    
Loop time of 0.035985 on 2 procs for 2000 steps with 7 atoms

Performance: 4802003.970 tau/day, 55578.750 timesteps/s, 389.051 katom-step/s
83.0% CPU use with 2 MPI tasks x no OpenMP threads

MPI task timing breakdown:
Section |  min time  |  avg time  |  max time  |%varavg| %total
---------------------------------------------------------------
Pair    | 0.00016473 | 0.00017123 | 0.00017773 |   0.0 |  0.48
Neigh   | 2.928e-05  | 2.9548e-05 | 2.9816e-05 |   0.0 |  0.08
Comm    | 0.0031587  | 0.003183   | 0.0032072  |   0.0 |  8.85
Output  | 0.019749   | 0.02111    | 0.022471   |   0.9 | 58.66
Modify  | 0.0056576  | 0.0075205  | 0.0093835  |   2.1 | 20.90
Other   |            | 0.003971   |            |       | 11.03

Nlocal:            3.5 ave           4 max           3 min
Histogram: 1 0 0 0 0 0 0 0 0 1
Nghost:             15 ave          16 max          14 min
Histogram: 1 0 0 0 0 0 0 0 0 1
Neighs:            5.5 ave           8 max           3 min
Histogram: 1 0 0 0 0 0 0 0 0 1

Total # of neighbors = 11
Ave neighs/atom = 1.5714286
Neighbor list builds = 26
Dangerous builds = 0
System init for write_data ...
Generated 0 of 0 mixed pair_coeff terms from geometric mixing rule
i (nlocal_bonus - 1): 3, j (ellipsoid[i]): 3
ellipsoid[bonus[nlocal_bonus-1].ilocal]: 3
bonus[ellipsoid[i]].ilocal: 3
ellipsoid[j]: 3
Total wall time: 0:00:00
