LAMMPS (7 Feb 2024 - Development - patch_21Nov2023-1049-gde202b68fe-modified)
KOKKOS mode with Kokkos version 4.2.0 is enabled (../kokkos.cpp:72)
Reading data file ...
  orthogonal box = (3 -4 -7) to (8 0 3)
  1 by 1 by 2 MPI processor grid
  reading atoms ...
  10 atoms
  reading velocities ...
  10 velocities
  10 ellipsoids
  read_data CPU = 0.006 seconds
10 atoms in group all
10 atoms in group polymer
Generated 0 of 0 mixed pair_coeff terms from geometric mixing rule
Neighbor list info ...
  update: every = 1 steps, delay = 0 steps, check = yes
  max neighbors/atom: 2000, page size: 100000
  master list distance cutoff = 2.6224615
  ghost atom cutoff = 2.6224615
  binsize = 1.3112308, bins = 4 4 8
  1 neighbor lists, perpetual/occasional/extra = 1 0 0
  (1) pair lj/cut/kk, perpetual
      attributes: half, newton on, kokkos_device
      pair build: half/bin/newton/kk/device
      stencil: half/bin/3d
      bin: kk/device
k_count_bonus.h_view(0) = 5
nlocal_bonus = 5
pack_exchange_kokkos() call end
k_count_bonus.h_view(0) = 5
nlocal_bonus = 5
pack_exchange_kokkos() call end
k_count_bonus.h_view(0) = 5
nlocal_bonus = 5
pack_exchange_kokkos() call end
Setting up Verlet run ...
  Unit style    : lj
  Current step  : 0
  Time step     : 0.001
k_count_bonus.h_view(0) = 5
nlocal_bonus = 5
pack_exchange_kokkos() call end
k_count_bonus.h_view(0) = 5
nlocal_bonus = 5
pack_exchange_kokkos() call end
k_count_bonus.h_view(0) = 5
nlocal_bonus = 5
pack_exchange_kokkos() call end
Pb Buf 0: q[0/1/3/4]: 1.000000 0.000000 0.000000 0.000000
Pb Buf 1: q[0/1/3/4]: 0.923785 0.382911 0.000000 0.000000
Pb Buf 2: q[0/1/3/4]: 0.923785 0.000000 0.382911 0.000000
pack_border_kokkos() call end
Pb Buf 0: q[0/1/3/4]: 0.707107 0.000000 0.000000 0.707107
Pb Buf 1: q[0/1/3/4]: 0.000000 0.000000 0.000000 0.000000
Pb Buf 2: q[0/1/3/4]: 0.000000 0.000000 0.000000 0.000000
pack_border_kokkos() call end
unpack_border_kokkos() call
UPb hEllipsoid 0: ellip, q[0/1/3/4]: 0 0.707107 0.000000 0.000000 0.707107
unpack_border_kokkos() call
UPb hEllipsoid 0: ellip, q[0/1/3/4]: 0 1.000000 0.000000 0.000000 0.000000
UPb dEllipsoid 0: ellip, q[0/1/3/4]: 0 1.000000 0.000000 0.000000 0.000000
UPb hEllipsoid 1: ellip, q[0/1/3/4]: 1 0.923785 0.382911 0.000000 0.000000
UPb dEllipsoid 1: ellip, q[0/1/3/4]: 1 0.923785 0.382911 0.000000 0.000000
UPb hEllipsoid 2: ellip, q[0/1/3/4]: 2 0.923785 0.000000 0.382911 0.000000
UPb dEllipsoid 2: ellip, q[0/1/3/4]: 2 0.923785 0.000000 0.382911 0.000000
UPb dEllipsoid 0: ellip, q[0/1/3/4]: 0 0.707107 0.000000 0.000000 0.707107
unpack_border_kokkos() call end
Pb Buf 0: q[0/1/3/4]: 0.707107 0.000000 0.000000 0.707107
Pb Buf 1: q[0/1/3/4]: 0.707107 0.000000 0.707107 0.000000
Pb Buf 2: q[0/1/3/4]: 0.577350 0.577350 0.577350 0.000000
pack_border_kokkos() call end
unpack_border_kokkos() call
UPb hEllipsoid 3: ellip, q[0/1/3/4]: 3 0.923785 0.000000 0.000000 0.382911
UPb dEllipsoid 3: ellip, q[0/1/3/4]: 3 0.923785 0.000000 0.000000 0.382911
UPb hEllipsoid 4: ellip, q[0/1/3/4]: 4 0.000000 0.707107 0.000000 0.707107
UPb dEllipsoid 4: ellip, q[0/1/3/4]: 4 0.000000 0.707107 0.000000 0.707107
unpack_border_kokkos() call end
UPb hEllipsoid 0: ellip, q[0/1/3/4]: 0 0.707107 0.000000 0.000000 0.707107
UPb dEllipsoid 0: ellip, q[0/1/3/4]: 0 0.707107 0.000000 0.000000 0.707107
UPb hEllipsoid 1: ellip, q[0/1/3/4]: 1 0.707107 0.000000 0.707107 0.000000
UPb dEllipsoid 1: ellip, q[0/1/3/4]: 1 0.707107 0.000000 0.707107 0.000000
UPb hEllipsoid 2: ellip, q[0/1/3/4]: 2 0.577350 0.577350 0.577350 0.000000
UPb dEllipsoid 2: ellip, q[0/1/3/4]: 2 0.577350 0.577350 0.577350 0.000000
UPb hEllipsoid 3: ellip, q[0/1/3/4]: 3 0.577350 0.000000 0.577350 0.577350
Pb Buf 0: q[0/1/3/4]: 1.000000 0.000000 0.000000 0.000000
Pb Buf 1: q[0/1/3/4]: 0.923785 0.382911 0.000000 0.000000
Pb Buf 2: q[0/1/3/4]: 0.923785 0.000000 0.382911 0.000000
pack_border_kokkos() call end
unpack_border_kokkos() call
unpack_border_kokkos() call end
Pb Buf 0: q[0/1/3/4]: 1.000000 0.000000 0.000000 0.000000
Pb Buf 1: q[0/1/3/4]: 0.923785 0.382911 0.000000 0.000000
UPb dEllipsoid 3: ellip, q[0/1/3/4]: 3 0.577350 0.000000 0.577350 0.577350
UPb hEllipsoid 4: ellip, q[0/1/3/4]: 4 0.000000 0.577350 0.577350 0.577350
UPb dEllipsoid 4: ellip, q[0/1/3/4]: 4 0.000000 0.577350 0.577350 0.577350
unpack_border_kokkos() call end
Pb Buf 2: q[0/1/3/4]: 0.923785 0.000000 0.382911 0.000000
pack_border_kokkos() call end
unpack_border_kokkos() call
UPb hEllipsoid 0: ellip, q[0/1/3/4]: 0 1.000000 0.000000 0.000000 0.000000
UPb dEllipsoid 0: ellip, q[0/1/3/4]: 0 1.000000 0.000000 0.000000 0.000000
UPb hEllipsoid 1: ellip, q[0/1/3/4]: 1 0.923785 0.382911 0.000000 0.000000
UPb dEllipsoid 1: ellip, q[0/1/3/4]: 1 0.923785 0.382911 0.000000 0.000000
UPb hEllipsoid 2: ellip, q[0/1/3/4]: 2 0.923785 0.000000 0.382911 0.000000
Pb Buf 0: q[0/1/3/4]: 0.707107 0.000000 0.000000 0.707107
Pb Buf 1: q[0/1/3/4]: 0.707107 0.000000 0.707107 0.000000
Pb Buf 2: q[0/1/3/4]: 0.577350 0.577350 0.577350 0.000000
pack_border_kokkos() call end
unpack_border_kokkos() call
UPb hEllipsoid 0: ellip, q[0/1/3/4]: 0 0.707107 0.000000 0.000000 0.707107
UPb dEllipsoid 0: ellip, q[0/1/3/4]: 0 0.707107 0.000000 0.000000 0.707107
UPb hEllipsoid 1: ellip, q[0/1/3/4]: 1 0.707107 0.000000 0.707107 0.000000
UPb dEllipsoid 2: ellip, q[0/1/3/4]: 2 0.923785 0.000000 0.382911 0.000000
UPb hEllipsoid 3: ellip, q[0/1/3/4]: 3 0.923785 0.000000 0.000000 0.382911
UPb dEllipsoid 3: ellip, q[0/1/3/4]: 3 0.923785 0.000000 0.000000 0.382911
UPb hEllipsoid 4: ellip, q[0/1/3/4]: 4 0.000000 0.707107 0.000000 0.707107
UPb dEllipsoid 4: ellip, q[0/1/3/4]: 4 0.000000 0.707107 0.000000 0.707107
UPb hEllipsoid 5: ellip, q[0/1/3/4]: 10 0.000000 0.000000 0.000000 0.000000
UPb dEllipsoid 5: ellip, q[0/1/3/4]: 10 0.000000 0.000000 0.000000 0.000000
UPb hEllipsoid 6: ellip, q[0/1/3/4]: 11 0.000000 0.000000 0.000000 0.000000
UPb dEllipsoid 1: ellip, q[0/1/3/4]: 1 0.707107 0.000000 0.707107 0.000000
UPb hEllipsoid 2: ellip, q[0/1/3/4]: 2 0.577350 0.577350 0.577350 0.000000
UPb dEllipsoid 2: ellip, q[0/1/3/4]: 2 0.577350 0.577350 0.577350 0.000000
UPb hEllipsoid 3: ellip, q[0/1/3/4]: 3 0.577350 0.000000 0.577350 0.577350
UPb dEllipsoid 3: ellip, q[0/1/3/4]: 3 0.577350 0.000000 0.577350 0.577350
UPb hEllipsoid 4: ellip, q[0/1/3/4]: 4 0.000000 0.577350 0.577350 0.577350
UPb dEllipsoid 4: ellip, q[0/1/3/4]: 4 0.000000 0.577350 0.577350 0.577350
UPb hEllipsoid 5: ellip, q[0/1/3/4]: 10 0.000000 0.000000 0.000000 0.000000
UPb dEllipsoid 6: ellip, q[0/1/3/4]: 11 0.000000 0.000000 0.000000 0.000000
UPb hEllipsoid 7: ellip, q[0/1/3/4]: 12 0.000000 0.000000 0.000000 0.000000
UPb dEllipsoid 7: ellip, q[0/1/3/4]: 12 0.000000 0.000000 0.000000 0.000000
UPb hEllipsoid 8: ellip, q[0/1/3/4]: 13 0.000000 0.000000 0.000000 0.000000
UPb dEllipsoid 8: ellip, q[0/1/3/4]: 13 0.000000 0.000000 0.000000 0.000000
UPb hEllipsoid 9: ellip, q[0/1/3/4]: 14 0.000000 0.000000 0.000000 0.000000
UPb dEllipsoid 9: ellip, q[0/1/3/4]: 14 0.000000 0.000000 0.000000 0.000000
unpack_border_kokkos() call end
UPb dEllipsoid 5: ellip, q[0/1/3/4]: 10 0.000000 0.000000 0.000000 0.000000
UPb hEllipsoid 6: ellip, q[0/1/3/4]: 11 0.000000 0.000000 0.000000 0.000000
UPb dEllipsoid 6: ellip, q[0/1/3/4]: 11 0.000000 0.000000 0.000000 0.000000
UPb hEllipsoid 7: ellip, q[0/1/3/4]: 12 0.000000 0.000000 0.000000 0.000000
UPb dEllipsoid 7: ellip, q[0/1/3/4]: 12 0.000000 0.000000 0.000000 0.000000
UPb hEllipsoid 8: ellip, q[0/1/3/4]: 13 0.000000 0.000000 0.000000 0.000000
UPb dEllipsoid 8: ellip, q[0/1/3/4]: 13 0.000000 0.000000 0.000000 0.000000
UPb hEllipsoid 9: ellip, q[0/1/3/4]: 14 0.000000 0.000000 0.000000 0.000000
Pb Buf 0: q[0/1/3/4]: 1.000000 0.000000 0.000000 0.000000
Pb Buf 1: q[0/1/3/4]: 0.923785 0.382911 0.000000 0.000000
Pb Buf 2: q[0/1/3/4]: 0.923785 0.000000 0.382911 0.000000
pack_border_kokkos() call end
unpack_border_kokkos() call
unpack_border_kokkos() call end
UPb dEllipsoid 9: ellip, q[0/1/3/4]: 14 0.000000 0.000000 0.000000 0.000000
UPb hEllipsoid 10: ellip, q[0/1/3/4]: 15 0.707107 0.000000 0.000000 0.707107
UPb dEllipsoid 10: ellip, q[0/1/3/4]: 15 0.707107 0.000000 0.000000 0.707107
unpack_border_kokkos() call end
Pb Buf 0: q[0/1/3/4]: 0.707107 0.000000 0.707107 0.000000
Pb Buf 1: q[0/1/3/4]: 0.577350 0.577350 0.577350 0.000000
Pb Buf 0: q[0/1/3/4]: 1.000000 0.000000 0.000000 0.000000
Pb Buf 1: q[0/1/3/4]: 0.923785 0.382911 0.000000 0.000000
Pb Buf 2: q[0/1/3/4]: 0.923785 0.000000 0.382911 0.000000
pack_border_kokkos() call end
Pb Buf 2: q[0/1/3/4]: 0.577350 0.000000 0.577350 0.577350
pack_border_kokkos() call end
unpack_border_kokkos() call
UPb hEllipsoid 0: ellip, q[0/1/3/4]: 0 0.707107 0.000000 0.000000 0.707107
UPb dEllipsoid 0: ellip, q[0/1/3/4]: 0 0.707107 0.000000 0.000000 0.707107
UPb hEllipsoid 1: ellip, q[0/1/3/4]: 1 0.707107 0.000000 0.707107 0.000000
UPb dEllipsoid 1: ellip, q[0/1/3/4]: 1 0.707107 0.000000 0.707107 0.000000
UPb hEllipsoid 2: ellip, q[0/1/3/4]: 2 0.577350 0.577350 0.577350 0.000000
UPb dEllipsoid 2: ellip, q[0/1/3/4]: 2 0.577350 0.577350 0.577350 0.000000
UPb hEllipsoid 3: ellip, q[0/1/3/4]: 3 0.577350 0.000000 0.577350 0.577350
UPb dEllipsoid 3: ellip, q[0/1/3/4]: 3 0.577350 0.000000 0.577350 0.577350
UPb hEllipsoid 4: ellip, q[0/1/3/4]: 4 0.000000 0.577350 0.577350 0.577350
UPb dEllipsoid 4: ellip, q[0/1/3/4]: 4 0.000000 0.577350 0.577350 0.577350
UPb hEllipsoid 5: ellip, q[0/1/3/4]: 10 0.000000 0.000000 0.000000 0.000000
UPb dEllipsoid 5: ellip, q[0/1/3/4]: 10 0.000000 0.000000 0.000000 0.000000
UPb hEllipsoid 6: ellip, q[0/1/3/4]: 11 0.000000 0.000000 0.000000 0.000000
UPb dEllipsoid 6: ellip, q[0/1/3/4]: 11 0.000000 0.000000 0.000000 0.000000
UPb hEllipsoid 7: ellip, q[0/1/3/4]: 12 0.000000 0.000000 0.000000 0.000000
UPb dEllipsoid 7: ellip, q[0/1/3/4]: 12 0.000000 0.000000 0.000000 0.000000
unpack_border_kokkos() call end
Pb Buf 0: q[0/1/3/4]: 0.707107 0.000000 0.000000 0.707107
Pb Buf 1: q[0/1/3/4]: 0.707107 0.000000 0.707107 0.000000
Pb Buf 2: q[0/1/3/4]: 0.577350 0.577350 0.577350 0.000000
pack_border_kokkos() call end
unpack_border_kokkos() call
UPb hEllipsoid 0: ellip, q[0/1/3/4]: 0 1.000000 0.000000 0.000000 0.000000
UPb dEllipsoid 0: ellip, q[0/1/3/4]: 0 1.000000 0.000000 0.000000 0.000000
unpack_border_kokkos() call
UPb hEllipsoid 0: ellip, q[0/1/3/4]: 0 0.707107 0.000000 0.000000 0.707107
UPb dEllipsoid 0: ellip, q[0/1/3/4]: 0 0.707107 0.000000 0.000000 0.707107
UPb hEllipsoid 1: ellip, q[0/1/3/4]: 1 0.707107 0.000000 0.707107 0.000000
UPb dEllipsoid 1: ellip, q[0/1/3/4]: 1 0.707107 0.000000 0.707107 0.000000
UPb hEllipsoid 2: ellip, q[0/1/3/4]: 2 0.577350 0.577350 0.577350 0.000000
UPb hEllipsoid 1: ellip, q[0/1/3/4]: 1 0.923785 0.382911 0.000000 0.000000
UPb dEllipsoid 1: ellip, q[0/1/3/4]: 1 0.923785 0.382911 0.000000 0.000000
UPb hEllipsoid 2: ellip, q[0/1/3/4]: 2 0.923785 0.000000 0.382911 0.000000
UPb dEllipsoid 2: ellip, q[0/1/3/4]: 2 0.923785 0.000000 0.382911 0.000000
UPb hEllipsoid 3: ellip, q[0/1/3/4]: 3 0.923785 0.000000 0.000000 0.382911
UPb dEllipsoid 3: ellip, q[0/1/3/4]: 3 0.923785 0.000000 0.000000 0.382911
UPb hEllipsoid 4: ellip, q[0/1/3/4]: 4 0.000000 0.707107 0.000000 0.707107
UPb dEllipsoid 2: ellip, q[0/1/3/4]: 2 0.577350 0.577350 0.577350 0.000000
UPb hEllipsoid 3: ellip, q[0/1/3/4]: 3 0.577350 0.000000 0.577350 0.577350
UPb dEllipsoid 3: ellip, q[0/1/3/4]: 3 0.577350 0.000000 0.577350 0.577350
UPb hEllipsoid 4: ellip, q[0/1/3/4]: 4 0.000000 0.577350 0.577350 0.577350
UPb dEllipsoid 4: ellip, q[0/1/3/4]: 4 0.000000 0.577350 0.577350 0.577350
UPb hEllipsoid 5: ellip, q[0/1/3/4]: 10 0.000000 0.000000 0.000000 0.000000
UPb dEllipsoid 5: ellip, q[0/1/3/4]: 10 0.000000 0.000000 0.000000 0.000000
UPb hEllipsoid 6: ellip, q[0/1/3/4]: 11 0.000000 0.000000 0.000000 0.000000
UPb dEllipsoid 4: ellip, q[0/1/3/4]: 4 0.000000 0.707107 0.000000 0.707107
UPb hEllipsoid 5: ellip, q[0/1/3/4]: 10 0.000000 0.000000 0.000000 0.000000
UPb dEllipsoid 5: ellip, q[0/1/3/4]: 10 0.000000 0.000000 0.000000 0.000000
UPb hEllipsoid 6: ellip, q[0/1/3/4]: 11 0.000000 0.000000 0.000000 0.000000
UPb dEllipsoid 6: ellip, q[0/1/3/4]: 11 0.000000 0.000000 0.000000 0.000000
UPb hEllipsoid 7: ellip, q[0/1/3/4]: 12 0.000000 0.000000 0.000000 0.000000
UPb dEllipsoid 7: ellip, q[0/1/3/4]: 12 0.000000 0.000000 0.000000 0.000000
UPb hEllipsoid 8: ellip, q[0/1/3/4]: 13 0.000000 0.000000 0.000000 0.000000
UPb dEllipsoid 8: ellip, q[0/1/3/4]: 13 0.000000 0.000000 0.000000 0.000000
UPb dEllipsoid 6: ellip, q[0/1/3/4]: 11 0.000000 0.000000 0.000000 0.000000
UPb hEllipsoid 7: ellip, q[0/1/3/4]: 12 0.000000 0.000000 0.000000 0.000000
UPb dEllipsoid 7: ellip, q[0/1/3/4]: 12 0.000000 0.000000 0.000000 0.000000
UPb hEllipsoid 8: ellip, q[0/1/3/4]: 13 0.000000 0.000000 0.000000 0.000000
UPb dEllipsoid 8: ellip, q[0/1/3/4]: 13 0.000000 0.000000 0.000000 0.000000
UPb hEllipsoid 9: ellip, q[0/1/3/4]: 14 0.000000 0.000000 0.000000 0.000000
UPb dEllipsoid 9: ellip, q[0/1/3/4]: 14 0.000000 0.000000 0.000000 0.000000
UPb hEllipsoid 10: ellip, q[0/1/3/4]: 15 0.707107 0.000000 0.000000 0.707107
UPb hEllipsoid 9: ellip, q[0/1/3/4]: 14 0.000000 0.000000 0.000000 0.000000
UPb dEllipsoid 9: ellip, q[0/1/3/4]: 14 0.000000 0.000000 0.000000 0.000000
UPb hEllipsoid 10: ellip, q[0/1/3/4]: 15 1.000000 0.000000 0.000000 0.000000
UPb dEllipsoid 10: ellip, q[0/1/3/4]: 15 1.000000 0.000000 0.000000 0.000000
UPb hEllipsoid 11: ellip, q[0/1/3/4]: 16 0.923785 0.382911 0.000000 0.000000
UPb dEllipsoid 11: ellip, q[0/1/3/4]: 16 0.923785 0.382911 0.000000 0.000000
UPb hEllipsoid 12: ellip, q[0/1/3/4]: 17 0.923785 0.000000 0.382911 0.000000
UPb dEllipsoid 12: ellip, q[0/1/3/4]: 17 0.923785 0.000000 0.382911 0.000000
UPb hEllipsoid 13: ellip, q[0/1/3/4]: 18 0.923785 0.000000 0.000000 0.382911
UPb dEllipsoid 10: ellip, q[0/1/3/4]: 15 0.707107 0.000000 0.000000 0.707107
UPb hEllipsoid 11: ellip, q[0/1/3/4]: 16 0.707107 0.000000 0.000000 0.707107
UPb dEllipsoid 11: ellip, q[0/1/3/4]: 16 0.707107 0.000000 0.000000 0.707107
unpack_border_kokkos() call end
Pb Buf 0: q[0/1/3/4]: 0.577350 0.577350 0.577350 0.000000
UPb dEllipsoid 13: ellip, q[0/1/3/4]: 18 0.923785 0.000000 0.000000 0.382911
UPb hEllipsoid 14: ellip, q[0/1/3/4]: 19 0.000000 0.707107 0.000000 0.707107
UPb dEllipsoid 14: ellip, q[0/1/3/4]: 19 0.000000 0.707107 0.000000 0.707107
UPb hEllipsoid 15: ellip, q[0/1/3/4]: 20 1.000000 0.000000 0.000000 0.000000
UPb dEllipsoid 15: ellip, q[0/1/3/4]: 20 1.000000 0.000000 0.000000 0.000000
UPb hEllipsoid 16: ellip, q[0/1/3/4]: 21 0.923785 0.382911 0.000000 0.000000
UPb dEllipsoid 16: ellip, q[0/1/3/4]: 21 0.923785 0.382911 0.000000 0.000000
UPb hEllipsoid 17: ellip, q[0/1/3/4]: 22 0.923785 0.000000 0.382911 0.000000
Pb Buf 1: q[0/1/3/4]: 0.577350 0.000000 0.577350 0.577350
Pb Buf 2: q[0/1/3/4]: 0.000000 0.577350 0.577350 0.577350
pack_border_kokkos() call end
UPb dEllipsoid 17: ellip, q[0/1/3/4]: 22 0.923785 0.000000 0.382911 0.000000
unpack_border_kokkos() call end
Pb Buf 0: q[0/1/3/4]: 0.923785 0.000000 0.382911 0.000000
Pb Buf 1: q[0/1/3/4]: 0.923785 0.000000 0.000000 0.382911
Pb Buf 2: q[0/1/3/4]: 0.000000 0.707107 0.000000 0.707107
pack_border_kokkos() call end
unpack_border_kokkos() call
UPb hEllipsoid 0: ellip, q[0/1/3/4]: 0 1.000000 0.000000 0.000000 0.000000
UPb dEllipsoid 0: ellip, q[0/1/3/4]: 0 1.000000 0.000000 0.000000 0.000000
UPb hEllipsoid 1: ellip, q[0/1/3/4]: 1 0.923785 0.382911 0.000000 0.000000
UPb dEllipsoid 1: ellip, q[0/1/3/4]: 1 0.923785 0.382911 0.000000 0.000000
unpack_border_kokkos() call
UPb hEllipsoid 0: ellip, q[0/1/3/4]: 0 0.707107 0.000000 0.000000 0.707107
UPb dEllipsoid 0: ellip, q[0/1/3/4]: 0 0.707107 0.000000 0.000000 0.707107
UPb hEllipsoid 1: ellip, q[0/1/3/4]: 1 0.707107 0.000000 0.707107 0.000000
UPb dEllipsoid 1: ellip, q[0/1/3/4]: 1 0.707107 0.000000 0.707107 0.000000
UPb hEllipsoid 2: ellip, q[0/1/3/4]: 2 0.577350 0.577350 0.577350 0.000000
UPb dEllipsoid 2: ellip, q[0/1/3/4]: 2 0.577350 0.577350 0.577350 0.000000
UPb hEllipsoid 2: ellip, q[0/1/3/4]: 2 0.923785 0.000000 0.382911 0.000000
UPb dEllipsoid 2: ellip, q[0/1/3/4]: 2 0.923785 0.000000 0.382911 0.000000
UPb hEllipsoid 3: ellip, q[0/1/3/4]: 3 0.923785 0.000000 0.000000 0.382911
UPb dEllipsoid 3: ellip, q[0/1/3/4]: 3 0.923785 0.000000 0.000000 0.382911
UPb hEllipsoid 4: ellip, q[0/1/3/4]: 4 0.000000 0.707107 0.000000 0.707107
UPb dEllipsoid 4: ellip, q[0/1/3/4]: 4 0.000000 0.707107 0.000000 0.707107
UPb hEllipsoid 5: ellip, q[0/1/3/4]: 10 0.000000 0.000000 0.000000 0.000000
UPb dEllipsoid 5: ellip, q[0/1/3/4]: 10 0.000000 0.000000 0.000000 0.000000
UPb hEllipsoid 3: ellip, q[0/1/3/4]: 3 0.577350 0.000000 0.577350 0.577350
UPb dEllipsoid 3: ellip, q[0/1/3/4]: 3 0.577350 0.000000 0.577350 0.577350
UPb hEllipsoid 4: ellip, q[0/1/3/4]: 4 0.000000 0.577350 0.577350 0.577350
UPb dEllipsoid 4: ellip, q[0/1/3/4]: 4 0.000000 0.577350 0.577350 0.577350
UPb hEllipsoid 5: ellip, q[0/1/3/4]: 10 0.000000 0.000000 0.000000 0.000000
UPb dEllipsoid 5: ellip, q[0/1/3/4]: 10 0.000000 0.000000 0.000000 0.000000
UPb hEllipsoid 6: ellip, q[0/1/3/4]: 11 0.000000 0.000000 0.000000 0.000000
UPb dEllipsoid 6: ellip, q[0/1/3/4]: 11 0.000000 0.000000 0.000000 0.000000
UPb hEllipsoid 6: ellip, q[0/1/3/4]: 11 0.000000 0.000000 0.000000 0.000000
UPb dEllipsoid 6: ellip, q[0/1/3/4]: 11 0.000000 0.000000 0.000000 0.000000
UPb hEllipsoid 7: ellip, q[0/1/3/4]: 12 0.000000 0.000000 0.000000 0.000000
UPb dEllipsoid 7: ellip, q[0/1/3/4]: 12 0.000000 0.000000 0.000000 0.000000
UPb hEllipsoid 8: ellip, q[0/1/3/4]: 13 0.000000 0.000000 0.000000 0.000000
UPb dEllipsoid 8: ellip, q[0/1/3/4]: 13 0.000000 0.000000 0.000000 0.000000
UPb hEllipsoid 9: ellip, q[0/1/3/4]: 14 0.000000 0.000000 0.000000 0.000000
UPb hEllipsoid 7: ellip, q[0/1/3/4]: 12 0.000000 0.000000 0.000000 0.000000
UPb dEllipsoid 7: ellip, q[0/1/3/4]: 12 0.000000 0.000000 0.000000 0.000000
UPb hEllipsoid 8: ellip, q[0/1/3/4]: 13 0.000000 0.000000 0.000000 0.000000
UPb dEllipsoid 8: ellip, q[0/1/3/4]: 13 0.000000 0.000000 0.000000 0.000000
UPb hEllipsoid 9: ellip, q[0/1/3/4]: 14 0.000000 0.000000 0.000000 0.000000
UPb dEllipsoid 9: ellip, q[0/1/3/4]: 14 0.000000 0.000000 0.000000 0.000000
UPb hEllipsoid 10: ellip, q[0/1/3/4]: 15 0.707107 0.000000 0.000000 0.707107
UPb dEllipsoid 10: ellip, q[0/1/3/4]: 15 0.707107 0.000000 0.000000 0.707107
UPb hEllipsoid 11: ellip, q[0/1/3/4]: 16 0.707107 0.000000 0.000000 0.707107
UPb dEllipsoid 9: ellip, q[0/1/3/4]: 14 0.000000 0.000000 0.000000 0.000000
UPb hEllipsoid 10: ellip, q[0/1/3/4]: 15 1.000000 0.000000 0.000000 0.000000
UPb dEllipsoid 10: ellip, q[0/1/3/4]: 15 1.000000 0.000000 0.000000 0.000000
UPb hEllipsoid 11: ellip, q[0/1/3/4]: 16 0.923785 0.382911 0.000000 0.000000
UPb dEllipsoid 11: ellip, q[0/1/3/4]: 16 0.923785 0.382911 0.000000 0.000000
UPb hEllipsoid 12: ellip, q[0/1/3/4]: 17 0.923785 0.000000 0.382911 0.000000
UPb dEllipsoid 12: ellip, q[0/1/3/4]: 17 0.923785 0.000000 0.382911 0.000000
UPb hEllipsoid 13: ellip, q[0/1/3/4]: 18 0.923785 0.000000 0.000000 0.382911
UPb dEllipsoid 11: ellip, q[0/1/3/4]: 16 0.707107 0.000000 0.000000 0.707107
unpack_border_kokkos() call end
UPb dEllipsoid 13: ellip, q[0/1/3/4]: 18 0.923785 0.000000 0.000000 0.382911
UPb hEllipsoid 14: ellip, q[0/1/3/4]: 19 0.000000 0.707107 0.000000 0.707107
UPb dEllipsoid 14: ellip, q[0/1/3/4]: 19 0.000000 0.707107 0.000000 0.707107
UPb hEllipsoid 15: ellip, q[0/1/3/4]: 20 1.000000 0.000000 0.000000 0.000000
UPb dEllipsoid 15: ellip, q[0/1/3/4]: 20 1.000000 0.000000 0.000000 0.000000
UPb hEllipsoid 16: ellip, q[0/1/3/4]: 21 0.923785 0.382911 0.000000 0.000000
UPb dEllipsoid 16: ellip, q[0/1/3/4]: 21 0.923785 0.382911 0.000000 0.000000
UPb hEllipsoid 17: ellip, q[0/1/3/4]: 22 0.923785 0.000000 0.382911 0.000000
UPb dEllipsoid 17: ellip, q[0/1/3/4]: 22 0.923785 0.000000 0.382911 0.000000
unpack_border_kokkos() call end
0  ekin = 15624.9993015099 | epot = -8.42733744825084e-12 | etot = 15624.9993015099
Per MPI rank memory allocation (min/avg/max) = 5.174 | 5.174 | 5.174 Mbytes
   Step          Temp          E_pair         E_mol          TotEng         Press     
         0   1157.4074     -8.4273374e-13  0              1562.4999      52.083331    
1  ekin = 15624.9993015099 | epot = -8.42733744825085e-12 | etot = 15624.9993015099
2  ekin = 15624.9993015099 | epot = -8.42733744825084e-12 | etot = 15624.9993015099
3  ekin = 15624.9993015099 | epot = -8.42733744825085e-12 | etot = 15624.9993015099
4  ekin = 15624.9993015099 | epot = -8.42733744825085e-12 | etot = 15624.9993015099
5  ekin = 15624.9993015099 | epot = -8.42733744825085e-12 | etot = 15624.9993015099
6  ekin = 15624.9993015099 | epot = -8.42733744825085e-12 | etot = 15624.9993015099
7  ekin = 15624.9993015099 | epot = -8.42733744825085e-12 | etot = 15624.9993015099
8  ekin = 15624.9993015099 | epot = -8.42733744825086e-12 | etot = 15624.9993015099
9  ekin = 15624.9993015099 | epot = -8.42733744825086e-12 | etot = 15624.9993015099
10  ekin = 15624.9993015099 | epot = -8.42733744825086e-12 | etot = 15624.9993015099
11  ekin = 15624.9993015099 | epot = -8.42733744825086e-12 | etot = 15624.9993015099
12  ekin = 15624.9993015099 | epot = -8.42733744825086e-12 | etot = 15624.9993015099
13  ekin = 15624.9993015099 | epot = -8.42733744825086e-12 | etot = 15624.9993015099
14  ekin = 15624.9993015099 | epot = -8.42733744825086e-12 | etot = 15624.9993015099
15  ekin = 15624.9993015099 | epot = -8.42733744825087e-12 | etot = 15624.9993015099
16  ekin = 15624.9993015099 | epot = -8.42733744825087e-12 | etot = 15624.9993015099
17  ekin = 15624.9993015099 | epot = -8.42733744825087e-12 | etot = 15624.9993015099
18  ekin = 15624.9993015099 | epot = -8.42733744825087e-12 | etot = 15624.9993015099
19  ekin = 15624.9993015099 | epot = -8.42733744825087e-12 | etot = 15624.9993015099
20  ekin = 15624.9993015099 | epot = -8.42733744825087e-12 | etot = 15624.9993015099
21  ekin = 15624.9993015099 | epot = -8.42733744825087e-12 | etot = 15624.9993015099
22  ekin = 15624.9993015099 | epot = -8.42733744825086e-12 | etot = 15624.9993015099
23  ekin = 15624.9993015099 | epot = -8.42733744825086e-12 | etot = 15624.9993015099
24  ekin = 15624.9993015099 | epot = -8.42733744825086e-12 | etot = 15624.9993015099
25  ekin = 15624.9993015099 | epot = -8.42733744825085e-12 | etot = 15624.9993015099
26  ekin = 15624.9993015099 | epot = -8.42733744825085e-12 | etot = 15624.9993015099
27  ekin = 15624.9993015099 | epot = -8.42733744825084e-12 | etot = 15624.9993015099
28  ekin = 15624.9993015099 | epot = -8.42733744825084e-12 | etot = 15624.9993015099
29  ekin = 15624.9993015099 | epot = -8.42733744825083e-12 | etot = 15624.9993015099
30  ekin = 15624.9993015099 | epot = -8.42733744825083e-12 | etot = 15624.9993015099
31  ekin = 15624.9993015099 | epot = -8.42733744825082e-12 | etot = 15624.9993015099
32  ekin = 15624.9993015099 | epot = -8.42733744825082e-12 | etot = 15624.9993015099
33  ekin = 15624.9993015099 | epot = -8.42733744825081e-12 | etot = 15624.9993015099
34  ekin = 15624.9993015099 | epot = -8.42733744825081e-12 | etot = 15624.9993015099
35  ekin = 15624.9993015099 | epot = -8.4273374482508e-12 | etot = 15624.9993015099
36  ekin = 15624.9993015099 | epot = -8.4273374482508e-12 | etot = 15624.9993015099
37  ekin = 15624.9993015099 | epot = -8.42733744825079e-12 | etot = 15624.9993015099
38  ekin = 15624.9993015099 | epot = -8.42733744825079e-12 | etot = 15624.9993015099
39  ekin = 15624.9993015099 | epot = -8.42733744825078e-12 | etot = 15624.9993015099
40  ekin = 15624.9993015099 | epot = -8.42733744825078e-12 | etot = 15624.9993015099
41  ekin = 15624.9993015099 | epot = -8.42733744825077e-12 | etot = 15624.9993015099
42  ekin = 15624.9993015099 | epot = -8.42733744825077e-12 | etot = 15624.9993015099
43  ekin = 15624.9993015099 | epot = -8.42733744825077e-12 | etot = 15624.9993015099
44  ekin = 15624.9993015099 | epot = -8.42733744825076e-12 | etot = 15624.9993015099
45  ekin = 15624.9993015099 | epot = -8.42733744825075e-12 | etot = 15624.9993015099
46  ekin = 15624.9993015099 | epot = -8.42733744825075e-12 | etot = 15624.9993015099
47  ekin = 15624.9993015099 | epot = -8.42733744825075e-12 | etot = 15624.9993015099
48  ekin = 15624.9993015099 | epot = -8.42733744825074e-12 | etot = 15624.9993015099
49  ekin = 15624.9993015099 | epot = -8.42733744825074e-12 | etot = 15624.9993015099
50  ekin = 15624.9993015099 | epot = -8.42733744825073e-12 | etot = 15624.9993015099
51  ekin = 15624.9993015099 | epot = -8.42733744825073e-12 | etot = 15624.9993015099
52  ekin = 15624.9993015099 | epot = -8.42733744825072e-12 | etot = 15624.9993015099
53  ekin = 15624.9993015099 | epot = -8.42733744825072e-12 | etot = 15624.9993015099
54  ekin = 15624.9993015099 | epot = -8.42733744825071e-12 | etot = 15624.9993015099
55  ekin = 15624.9993015099 | epot = -8.42733744825071e-12 | etot = 15624.9993015099
56  ekin = 15624.9993015099 | epot = -8.4273374482507e-12 | etot = 15624.9993015099
57  ekin = 15624.9993015099 | epot = -8.4273374482507e-12 | etot = 15624.9993015099
58  ekin = 15624.9993015099 | epot = -8.42733744825069e-12 | etot = 15624.9993015099
59  ekin = 15624.9993015099 | epot = -8.42733744825069e-12 | etot = 15624.9993015099
60  ekin = 15624.9993015099 | epot = -8.42733744825068e-12 | etot = 15624.9993015099
61  ekin = 15624.9993015099 | epot = -8.42733744825068e-12 | etot = 15624.9993015099
62  ekin = 15624.9993015099 | epot = -8.42733744825068e-12 | etot = 15624.9993015099
63  ekin = 15624.9993015099 | epot = -8.42733744825067e-12 | etot = 15624.9993015099
64  ekin = 15624.9993015099 | epot = -8.42733744825067e-12 | etot = 15624.9993015099
65  ekin = 15624.9993015099 | epot = -8.42733744825066e-12 | etot = 15624.9993015099
66  ekin = 15624.9993015099 | epot = -8.42733744825066e-12 | etot = 15624.9993015099
67  ekin = 15624.9993015099 | epot = -8.42733744825065e-12 | etot = 15624.9993015099
68  ekin = 15624.9993015099 | epot = -8.42733744825065e-12 | etot = 15624.9993015099
69  ekin = 15624.9993015099 | epot = -8.42733744825065e-12 | etot = 15624.9993015099
70  ekin = 15624.9993015099 | epot = -8.42733744825065e-12 | etot = 15624.9993015099
71  ekin = 15624.9993015099 | epot = -8.42733744825065e-12 | etot = 15624.9993015099
72  ekin = 15624.9993015099 | epot = -8.42733744825064e-12 | etot = 15624.9993015099
73  ekin = 15624.9993015099 | epot = -8.42733744825064e-12 | etot = 15624.9993015099
74  ekin = 15624.9993015099 | epot = -8.42733744825064e-12 | etot = 15624.9993015099
k_count_bonus.h_view(0) = 5
nlocal_bonus = 5
pack_exchange_kokkos() call end
k_count_bonus.h_view(0) = 5
nlocal_bonus = 5
pack_exchange_kokkos() call end
k_count_bonus.h_view(0) = 5
nlocal_bonus = 5
pack_exchange_kokkos() call end
/------------------------------------------------------------------/
Pex Inline: i = 4, mysend = 0
k_count_bonus.h_view(0) = 5
_buf(mysend,[0/1/2/3]) = 23.000000 7.030827 -1.691769 -6.541610
_buf(mysend,[4/5/6]) = -0.000000 -0.000000 10.000000 
nlocal_bonus = 5
pack_exchange_kokkos() call end
_buf(mysend,[7/8/9/10]) = 0.000000 0.000000 0.000000 0.000000
_buf(mysend,[11/12/13/14]) = 31.249999 0.000000 0.000000 0.000000
_buf(mysend,[15/16/17/18]) = 0.000000 0.250000 0.500000 0.250000
_buf(mysend,[19/20/21/22]) = 0.000000 0.577350 0.577350 0.577350
/------------------------------------------------------------------/
/------------------------------------------------------------------/
Pex Inline: i = 4, mysend = 0
_buf(mysend,[0/1/2/3]) = 23.000000 5.265970 -2.917264 -1.917568
k_count_bonus.h_view(0) = 5
nlocal_bonus = 5
Pex Buf 0 (Proc 1): d_ubuf, q[0/1/3/4]: 0.000000 0.000000 0.577350 0.577350 0.577350
pack_exchange_kokkos() call end
_buf(mysend,[4/5/6]) = -0.000000 0.000000 10.000000 
_buf(mysend,[7/8/9/10]) = 0.000000 0.000000 0.000000 0.000000
_buf(mysend,[11/12/13/14]) = 31.249999 0.000000 0.000000 0.000000
_buf(mysend,[15/16/17/18]) = 0.000000 0.250000 0.500000 0.250000
_buf(mysend,[19/20/21/22]) = 0.000000 0.707107 0.000000 0.707107
/------------------------------------------------------------------/
k_count_bonus.h_view(0) = 5
nlocal_bonus = 5
Pex Buf 0 (Proc 0): d_ubuf, q[0/1/3/4]: 0.000000 0.000000 0.707107 0.000000 0.707107
pack_exchange_kokkos() call end
unpack_exchange_kokkos() call
UPex (Start) Ellipsoid 0 (Proc 0): q[0/1/3/4]: 1.000000 0.000000 0.000000 0.000000
unpack_exchange_kokkos() call
UPex (Start) Ellipsoid 0 (Proc 1): q[0/1/3/4]: 0.707107 0.000000 0.000000 0.707107
UPex (Start) Ellipsoid 1 (Proc 1): q[0/1/3/4]: 0.707107 0.000000 0.707107 0.000000
UPex (Start) Ellipsoid 2 (Proc 1): q[0/1/3/4]: 0.577350 0.577350 0.577350 0.000000
UPex (Start) Ellipsoid 3 (Proc 1): q[0/1/3/4]: 0.577350 0.000000 0.577350 0.577350
nlocal, atom->nlocal, nlocal_bonus = 4, 4, 5
UPex (Start) Ellipsoid 1 (Proc 0): q[0/1/3/4]: 0.923785 0.382911 0.000000 0.000000
UPex (Start) Ellipsoid 2 (Proc 0): q[0/1/3/4]: 0.923785 0.000000 0.382911 0.000000
UPex (Start) Ellipsoid 3 (Proc 0): q[0/1/3/4]: 0.923785 0.000000 0.000000 0.382911
nlocal, atom->nlocal, nlocal_bonus = 4, 4, 5
nrecv/size_exchange = 1
/------------------------------------------------------------------/
UPex Inline: i = 4
_x(i,0), _x(i,1), _x(i,2) = 5.265970 -2.917264 -1.917568
_v(i,0), _v(i,1), _v(i,2) = -0.000000 0.000000 10.000000
_tag[i], _type[i], _mask[i] = 5 1 3
nrecv/size_exchange = 1
/------------------------------------------------------------------/
UPex Inline: i = 4
_x(i,0), _x(i,1), _x(i,2) = 7.030827 -1.691769 -6.541610
_image[i], _rmass[i] = 537395712 31.249999
_angmom(i,0), _angmom(i,1), _angmom(i,2) = 0.000000 0.000000 0.000000
_bonus(i): shape[0/1/2] = 0.250000 0.500000 0.250000
_bonus(i): quat[0/1/2/3] = 0.000000 0.707107 0.000000 0.707107
_bonus(i).ilocal = 4
_ellipsoid(i) = 4
/------------------------------------------------------------------/
_v(i,0), _v(i,1), _v(i,2) = -0.000000 -0.000000 10.000000
_tag[i], _type[i], _mask[i] = 10 1 3
_image[i], _rmass[i] = 538444288 31.249999
_angmom(i,0), _angmom(i,1), _angmom(i,2) = 0.000000 0.000000 0.000000
UPex (End) Ellipsoid 0 (Proc 1): q[0/1/3/4]: 0.707107 0.000000 0.000000 0.707107
UPex (End) Ellipsoid 1 (Proc 1): q[0/1/3/4]: 0.707107 0.000000 0.707107 0.000000
UPex (End) Ellipsoid 2 (Proc 1): q[0/1/3/4]: 0.577350 0.577350 0.577350 0.000000
UPex (End) Ellipsoid 3 (Proc 1): q[0/1/3/4]: 0.577350 0.000000 0.577350 0.577350
UPex (End) Ellipsoid 4 (Proc 1): q[0/1/3/4]: 0.000000 0.707107 0.000000 0.707107
unpack_exchange_kokkos() call end
_bonus(i): shape[0/1/2] = 0.250000 0.500000 0.250000
_bonus(i): quat[0/1/2/3] = 0.000000 0.577350 0.577350 0.577350
_bonus(i).ilocal = 4
_ellipsoid(i) = 4
/------------------------------------------------------------------/
UPex (End) Ellipsoid 0 (Proc 0): q[0/1/3/4]: 1.000000 0.000000 0.000000 0.000000
UPex (End) Ellipsoid 1 (Proc 0): q[0/1/3/4]: 0.923785 0.382911 0.000000 0.000000
UPex (End) Ellipsoid 2 (Proc 0): q[0/1/3/4]: 0.923785 0.000000 0.382911 0.000000
UPex (End) Ellipsoid 3 (Proc 0): q[0/1/3/4]: 0.923785 0.000000 0.000000 0.382911
Pb Buf 0: q[0/1/3/4]: 0.707107 0.000000 0.000000 0.707107
Pb Buf 1: q[0/1/3/4]: 0.000000 0.707107 0.000000 0.707107
Pb Buf 2: q[0/1/3/4]: 0.000000 0.000000 0.000000 0.000000
pack_border_kokkos() call end
unpack_border_kokkos() call
UPex (End) Ellipsoid 4 (Proc 0): q[0/1/3/4]: 0.000000 0.577350 0.577350 0.577350
unpack_exchange_kokkos() call end
UPb hEllipsoid 0: ellip, q[0/1/3/4]: 0 0.707107 0.000000 0.000000 0.707107
UPb dEllipsoid 0: ellip, q[0/1/3/4]: 0 0.707107 0.000000 0.000000 0.707107
UPb hEllipsoid 1: ellip, q[0/1/3/4]: 1 0.707107 0.000000 0.707107 0.000000
UPb dEllipsoid 1: ellip, q[0/1/3/4]: 1 0.707107 0.000000 0.707107 0.000000
unpack_border_kokkos() call end
Pb Buf 0: q[0/1/3/4]: 0.707107 0.000000 0.000000 0.707107
Pb Buf 1: q[0/1/3/4]: 0.707107 0.000000 0.707107 0.000000
Pb Buf 2: q[0/1/3/4]: 0.577350 0.577350 0.577350 0.000000
pack_border_kokkos() call end
unpack_border_kokkos() call
Pb Buf 0: q[0/1/3/4]: 1.000000 0.000000 0.000000 0.000000
Pb Buf 1: q[0/1/3/4]: 0.923785 0.382911 0.000000 0.000000
UPb hEllipsoid 0: ellip, q[0/1/3/4]: 0 0.707107 0.000000 0.000000 0.707107
UPb dEllipsoid 0: ellip, q[0/1/3/4]: 0 0.707107 0.000000 0.000000 0.707107
UPb hEllipsoid 1: ellip, q[0/1/3/4]: 1 0.707107 0.000000 0.707107 0.000000
UPb dEllipsoid 1: ellip, q[0/1/3/4]: 1 0.707107 0.000000 0.707107 0.000000
UPb hEllipsoid 2: ellip, q[0/1/3/4]: 2 0.577350 0.577350 0.577350 0.000000
Pb Buf 2: q[0/1/3/4]: 0.923785 0.000000 0.382911 0.000000
pack_border_kokkos() call end
unpack_border_kokkos() call
UPb dEllipsoid 2: ellip, q[0/1/3/4]: 2 0.577350 0.577350 0.577350 0.000000
UPb hEllipsoid 3: ellip, q[0/1/3/4]: 3 0.577350 0.000000 0.577350 0.577350
UPb dEllipsoid 3: ellip, q[0/1/3/4]: 3 0.577350 0.000000 0.577350 0.577350
unpack_border_kokkos() call end
UPb hEllipsoid 0: ellip, q[0/1/3/4]: 0 1.000000 0.000000 0.000000 0.000000
UPb dEllipsoid 0: ellip, q[0/1/3/4]: 0 1.000000 0.000000 0.000000 0.000000
UPb hEllipsoid 1: ellip, q[0/1/3/4]: 1 0.923785 0.382911 0.000000 0.000000
Pb Buf 0: q[0/1/3/4]: 0.707107 0.000000 0.000000 0.707107
Pb Buf 1: q[0/1/3/4]: 0.707107 0.000000 0.707107 0.000000
Pb Buf 2: q[0/1/3/4]: 0.577350 0.577350 0.577350 0.000000
pack_border_kokkos() call end
unpack_border_kokkos() call
UPb hEllipsoid 0: ellip, q[0/1/3/4]: 0 0.707107 0.000000 0.000000 0.707107
UPb dEllipsoid 1: ellip, q[0/1/3/4]: 1 0.923785 0.382911 0.000000 0.000000
UPb hEllipsoid 2: ellip, q[0/1/3/4]: 2 0.923785 0.000000 0.382911 0.000000
UPb dEllipsoid 2: ellip, q[0/1/3/4]: 2 0.923785 0.000000 0.382911 0.000000
UPb dEllipsoid 0: ellip, q[0/1/3/4]: 0 0.707107 0.000000 0.000000 0.707107
UPb hEllipsoid 1: ellip, q[0/1/3/4]: 1 0.707107 0.000000 0.707107 0.000000
UPb dEllipsoid 1: ellip, q[0/1/3/4]: 1 0.707107 0.000000 0.707107 0.000000
UPb hEllipsoid 2: ellip, q[0/1/3/4]: 2 0.577350 0.577350 0.577350 0.000000
UPb dEllipsoid 2: ellip, q[0/1/3/4]: 2 0.577350 0.577350 0.577350 0.000000
UPb hEllipsoid 3: ellip, q[0/1/3/4]: 3 0.923785 0.000000 0.000000 0.382911
UPb dEllipsoid 3: ellip, q[0/1/3/4]: 3 0.923785 0.000000 0.000000 0.382911
UPb hEllipsoid 3: ellip, q[0/1/3/4]: 3 0.577350 0.000000 0.577350 0.577350
UPb dEllipsoid 3: ellip, q[0/1/3/4]: 3 0.577350 0.000000 0.577350 0.577350
UPb hEllipsoid 4: ellip, q[0/1/3/4]: 4 0.000000 0.707107 0.000000 0.707107
UPb dEllipsoid 4: ellip, q[0/1/3/4]: 4 0.000000 0.707107 0.000000 0.707107
unpack_border_kokkos() call end
UPb hEllipsoid 5: ellip, q[0/1/3/4]: 10 0.000000 0.000000 0.000000 0.000000
UPb dEllipsoid 5: ellip, q[0/1/3/4]: 10 0.000000 0.000000 0.000000 0.000000
UPb hEllipsoid 6: ellip, q[0/1/3/4]: 11 0.000000 0.000000 0.000000 0.000000
UPb dEllipsoid 6: ellip, q[0/1/3/4]: 11 0.000000 0.000000 0.000000 0.000000
UPb hEllipsoid 7: ellip, q[0/1/3/4]: 12 0.000000 0.000000 0.000000 0.000000
UPb dEllipsoid 7: ellip, q[0/1/3/4]: 12 0.000000 0.000000 0.000000 0.000000
Pb Buf 0: q[0/1/3/4]: 0.000000 0.577350 0.577350 0.577350
Pb Buf 1: q[0/1/3/4]: 0.923785 0.382911 0.000000 0.000000
UPb hEllipsoid 8: ellip, q[0/1/3/4]: 13 0.000000 0.000000 0.000000 0.000000
UPb dEllipsoid 8: ellip, q[0/1/3/4]: 13 0.000000 0.000000 0.000000 0.000000
UPb hEllipsoid 9: ellip, q[0/1/3/4]: 14 0.000000 0.000000 0.000000 0.000000
UPb dEllipsoid 9: ellip, q[0/1/3/4]: 14 0.000000 0.000000 0.000000 0.000000
UPb hEllipsoid 10: ellip, q[0/1/3/4]: 15 0.707107 0.000000 0.000000 0.707107
UPb dEllipsoid 10: ellip, q[0/1/3/4]: 15 0.707107 0.000000 0.000000 0.707107
Pb Buf 2: q[0/1/3/4]: 0.923785 0.000000 0.382911 0.000000
pack_border_kokkos() call end
unpack_border_kokkos() call
unpack_border_kokkos() call end
Pb Buf 0: q[0/1/3/4]: 0.707107 0.000000 0.707107 0.000000
Pb Buf 1: q[0/1/3/4]: 0.577350 0.577350 0.577350 0.000000
UPb hEllipsoid 0: ellip, q[0/1/3/4]: 0 1.000000 0.000000 0.000000 0.000000
UPb dEllipsoid 0: ellip, q[0/1/3/4]: 0 1.000000 0.000000 0.000000 0.000000
unpack_border_kokkos() call end
Pb Buf 2: q[0/1/3/4]: 0.577350 0.000000 0.577350 0.577350
pack_border_kokkos() call end
unpack_border_kokkos() call
UPb hEllipsoid 0: ellip, q[0/1/3/4]: 0 0.707107 0.000000 0.000000 0.707107
UPb dEllipsoid 0: ellip, q[0/1/3/4]: 0 0.707107 0.000000 0.000000 0.707107
UPb hEllipsoid 1: ellip, q[0/1/3/4]: 1 0.707107 0.000000 0.707107 0.000000
Pb Buf 0: q[0/1/3/4]: 1.000000 0.000000 0.000000 0.000000
UPb dEllipsoid 1: ellip, q[0/1/3/4]: 1 0.707107 0.000000 0.707107 0.000000
UPb hEllipsoid 2: ellip, q[0/1/3/4]: 2 0.577350 0.577350 0.577350 0.000000
UPb dEllipsoid 2: ellip, q[0/1/3/4]: 2 0.577350 0.577350 0.577350 0.000000
UPb hEllipsoid 3: ellip, q[0/1/3/4]: 3 0.577350 0.000000 0.577350 0.577350
UPb dEllipsoid 3: ellip, q[0/1/3/4]: 3 0.577350 0.000000 0.577350 0.577350
Pb Buf 1: q[0/1/3/4]: 0.923785 0.382911 0.000000 0.000000
Pb Buf 2: q[0/1/3/4]: 0.923785 0.000000 0.382911 0.000000
pack_border_kokkos() call end
unpack_border_kokkos() call
UPb hEllipsoid 4: ellip, q[0/1/3/4]: 4 0.000000 0.707107 0.000000 0.707107
UPb dEllipsoid 4: ellip, q[0/1/3/4]: 4 0.000000 0.707107 0.000000 0.707107
UPb hEllipsoid 5: ellip, q[0/1/3/4]: 10 0.000000 0.000000 0.000000 0.000000
UPb dEllipsoid 5: ellip, q[0/1/3/4]: 10 0.000000 0.000000 0.000000 0.000000
unpack_border_kokkos() call end
UPb hEllipsoid 0: ellip, q[0/1/3/4]: 0 1.000000 0.000000 0.000000 0.000000
UPb dEllipsoid 0: ellip, q[0/1/3/4]: 0 1.000000 0.000000 0.000000 0.000000
UPb hEllipsoid 1: ellip, q[0/1/3/4]: 1 0.923785 0.382911 0.000000 0.000000
Pb Buf 0: q[0/1/3/4]: 0.707107 0.000000 0.000000 0.707107
Pb Buf 1: q[0/1/3/4]: 0.707107 0.000000 0.707107 0.000000
Pb Buf 2: q[0/1/3/4]: 0.000000 0.707107 0.000000 0.707107
pack_border_kokkos() call end
UPb dEllipsoid 1: ellip, q[0/1/3/4]: 1 0.923785 0.382911 0.000000 0.000000
UPb hEllipsoid 2: ellip, q[0/1/3/4]: 2 0.923785 0.000000 0.382911 0.000000
UPb dEllipsoid 2: ellip, q[0/1/3/4]: 2 0.923785 0.000000 0.382911 0.000000
UPb hEllipsoid 3: ellip, q[0/1/3/4]: 3 0.923785 0.000000 0.000000 0.382911
UPb dEllipsoid 3: ellip, q[0/1/3/4]: 3 0.923785 0.000000 0.000000 0.382911
UPb hEllipsoid 4: ellip, q[0/1/3/4]: 4 0.000000 0.577350 0.577350 0.577350
UPb dEllipsoid 4: ellip, q[0/1/3/4]: 4 0.000000 0.577350 0.577350 0.577350
UPb hEllipsoid 5: ellip, q[0/1/3/4]: 10 0.000000 0.000000 0.000000 0.000000
UPb dEllipsoid 5: ellip, q[0/1/3/4]: 10 0.000000 0.000000 0.000000 0.000000
UPb hEllipsoid 6: ellip, q[0/1/3/4]: 11 0.000000 0.000000 0.000000 0.000000
UPb dEllipsoid 6: ellip, q[0/1/3/4]: 11 0.000000 0.000000 0.000000 0.000000
UPb hEllipsoid 7: ellip, q[0/1/3/4]: 12 0.000000 0.000000 0.000000 0.000000
UPb dEllipsoid 7: ellip, q[0/1/3/4]: 12 0.000000 0.000000 0.000000 0.000000
UPb hEllipsoid 8: ellip, q[0/1/3/4]: 13 0.000000 0.000000 0.000000 0.000000
UPb dEllipsoid 8: ellip, q[0/1/3/4]: 13 0.000000 0.000000 0.000000 0.000000
UPb hEllipsoid 9: ellip, q[0/1/3/4]: 14 0.000000 0.000000 0.000000 0.000000
UPb dEllipsoid 9: ellip, q[0/1/3/4]: 14 0.000000 0.000000 0.000000 0.000000
unpack_border_kokkos() call end
Pb Buf 0: q[0/1/3/4]: 0.000000 0.577350 0.577350 0.577350
Pb Buf 1: q[0/1/3/4]: 0.000000 0.577350 0.577350 0.577350
Pb Buf 2: q[0/1/3/4]: 0.923785 0.000000 0.382911 0.000000
pack_border_kokkos() call end
unpack_border_kokkos() call
UPb hEllipsoid 0: ellip, q[0/1/3/4]: 0 1.000000 0.000000 0.000000 0.000000
UPb dEllipsoid 0: ellip, q[0/1/3/4]: 0 1.000000 0.000000 0.000000 0.000000
UPb hEllipsoid 1: ellip, q[0/1/3/4]: 1 0.923785 0.382911 0.000000 0.000000
UPb dEllipsoid 1: ellip, q[0/1/3/4]: 1 0.923785 0.382911 0.000000 0.000000
unpack_border_kokkos() call end
Pb Buf 0: q[0/1/3/4]: 1.000000 0.000000 0.000000 0.000000
Pb Buf 1: q[0/1/3/4]: 0.923785 0.382911 0.000000 0.000000
Pb Buf 2: q[0/1/3/4]: 0.000000 0.577350 0.577350 0.577350
pack_border_kokkos() call end
unpack_border_kokkos() call
UPb hEllipsoid 0: ellip, q[0/1/3/4]: 0 0.707107 0.000000 0.000000 0.707107
unpack_border_kokkos() call
UPb dEllipsoid 0: ellip, q[0/1/3/4]: 0 0.707107 0.000000 0.000000 0.707107
UPb hEllipsoid 1: ellip, q[0/1/3/4]: 1 0.707107 0.000000 0.707107 0.000000
UPb dEllipsoid 1: ellip, q[0/1/3/4]: 1 0.707107 0.000000 0.707107 0.000000
UPb hEllipsoid 2: ellip, q[0/1/3/4]: 2 0.577350 0.577350 0.577350 0.000000
UPb dEllipsoid 2: ellip, q[0/1/3/4]: 2 0.577350 0.577350 0.577350 0.000000
UPb hEllipsoid 3: ellip, q[0/1/3/4]: 3 0.577350 0.000000 0.577350 0.577350
UPb hEllipsoid 0: ellip, q[0/1/3/4]: 0 1.000000 0.000000 0.000000 0.000000
UPb dEllipsoid 0: ellip, q[0/1/3/4]: 0 1.000000 0.000000 0.000000 0.000000
UPb hEllipsoid 1: ellip, q[0/1/3/4]: 1 0.923785 0.382911 0.000000 0.000000
UPb dEllipsoid 3: ellip, q[0/1/3/4]: 3 0.577350 0.000000 0.577350 0.577350
UPb hEllipsoid 4: ellip, q[0/1/3/4]: 4 0.000000 0.707107 0.000000 0.707107
UPb dEllipsoid 4: ellip, q[0/1/3/4]: 4 0.000000 0.707107 0.000000 0.707107
UPb hEllipsoid 5: ellip, q[0/1/3/4]: 10 0.000000 0.000000 0.000000 0.000000
UPb dEllipsoid 5: ellip, q[0/1/3/4]: 10 0.000000 0.000000 0.000000 0.000000
UPb dEllipsoid 1: ellip, q[0/1/3/4]: 1 0.923785 0.382911 0.000000 0.000000
UPb hEllipsoid 2: ellip, q[0/1/3/4]: 2 0.923785 0.000000 0.382911 0.000000
UPb hEllipsoid 6: ellip, q[0/1/3/4]: 11 0.000000 0.000000 0.000000 0.000000
UPb dEllipsoid 6: ellip, q[0/1/3/4]: 11 0.000000 0.000000 0.000000 0.000000
UPb hEllipsoid 7: ellip, q[0/1/3/4]: 12 0.000000 0.000000 0.000000 0.000000
UPb dEllipsoid 7: ellip, q[0/1/3/4]: 12 0.000000 0.000000 0.000000 0.000000
UPb hEllipsoid 8: ellip, q[0/1/3/4]: 13 0.000000 0.000000 0.000000 0.000000
UPb dEllipsoid 8: ellip, q[0/1/3/4]: 13 0.000000 0.000000 0.000000 0.000000
UPb dEllipsoid 2: ellip, q[0/1/3/4]: 2 0.923785 0.000000 0.382911 0.000000
UPb hEllipsoid 3: ellip, q[0/1/3/4]: 3 0.923785 0.000000 0.000000 0.382911
UPb dEllipsoid 3: ellip, q[0/1/3/4]: 3 0.923785 0.000000 0.000000 0.382911
UPb hEllipsoid 4: ellip, q[0/1/3/4]: 4 0.000000 0.577350 0.577350 0.577350
UPb hEllipsoid 9: ellip, q[0/1/3/4]: 14 0.000000 0.000000 0.000000 0.000000
UPb dEllipsoid 9: ellip, q[0/1/3/4]: 14 0.000000 0.000000 0.000000 0.000000
UPb hEllipsoid 10: ellip, q[0/1/3/4]: 15 0.707107 0.000000 0.000000 0.707107
UPb dEllipsoid 10: ellip, q[0/1/3/4]: 15 0.707107 0.000000 0.000000 0.707107
UPb hEllipsoid 11: ellip, q[0/1/3/4]: 16 0.000000 0.707107 0.000000 0.707107
UPb dEllipsoid 11: ellip, q[0/1/3/4]: 16 0.000000 0.707107 0.000000 0.707107
UPb dEllipsoid 4: ellip, q[0/1/3/4]: 4 0.000000 0.577350 0.577350 0.577350
UPb hEllipsoid 5: ellip, q[0/1/3/4]: 10 0.000000 0.000000 0.000000 0.000000
UPb dEllipsoid 5: ellip, q[0/1/3/4]: 10 0.000000 0.000000 0.000000 0.000000
UPb hEllipsoid 12: ellip, q[0/1/3/4]: 17 0.707107 0.000000 0.000000 0.707107
UPb dEllipsoid 12: ellip, q[0/1/3/4]: 17 0.707107 0.000000 0.000000 0.707107
UPb hEllipsoid 13: ellip, q[0/1/3/4]: 18 0.707107 0.000000 0.707107 0.000000
UPb dEllipsoid 13: ellip, q[0/1/3/4]: 18 0.707107 0.000000 0.707107 0.000000
unpack_border_kokkos() call end
UPb hEllipsoid 6: ellip, q[0/1/3/4]: 11 0.000000 0.000000 0.000000 0.000000
UPb dEllipsoid 6: ellip, q[0/1/3/4]: 11 0.000000 0.000000 0.000000 0.000000
Pb Buf 0: q[0/1/3/4]: 0.577350 0.577350 0.577350 0.000000
Pb Buf 1: q[0/1/3/4]: 0.577350 0.000000 0.577350 0.577350
Pb Buf 2: q[0/1/3/4]: 0.577350 0.577350 0.577350 0.000000
pack_border_kokkos() call end
UPb hEllipsoid 7: ellip, q[0/1/3/4]: 12 0.000000 0.000000 0.000000 0.000000
UPb dEllipsoid 7: ellip, q[0/1/3/4]: 12 0.000000 0.000000 0.000000 0.000000
UPb hEllipsoid 8: ellip, q[0/1/3/4]: 13 0.000000 0.000000 0.000000 0.000000
UPb dEllipsoid 8: ellip, q[0/1/3/4]: 13 0.000000 0.000000 0.000000 0.000000
UPb hEllipsoid 9: ellip, q[0/1/3/4]: 14 0.000000 0.000000 0.000000 0.000000
UPb dEllipsoid 9: ellip, q[0/1/3/4]: 14 0.000000 0.000000 0.000000 0.000000
UPb hEllipsoid 10: ellip, q[0/1/3/4]: 15 1.000000 0.000000 0.000000 0.000000
UPb dEllipsoid 10: ellip, q[0/1/3/4]: 15 1.000000 0.000000 0.000000 0.000000
UPb hEllipsoid 11: ellip, q[0/1/3/4]: 16 0.923785 0.382911 0.000000 0.000000
UPb dEllipsoid 11: ellip, q[0/1/3/4]: 16 0.923785 0.382911 0.000000 0.000000
UPb hEllipsoid 12: ellip, q[0/1/3/4]: 17 0.923785 0.000000 0.382911 0.000000
UPb dEllipsoid 12: ellip, q[0/1/3/4]: 17 0.923785 0.000000 0.382911 0.000000
UPb hEllipsoid 13: ellip, q[0/1/3/4]: 18 0.923785 0.000000 0.000000 0.382911
UPb dEllipsoid 13: ellip, q[0/1/3/4]: 18 0.923785 0.000000 0.000000 0.382911
UPb hEllipsoid 14: ellip, q[0/1/3/4]: 19 0.000000 0.577350 0.577350 0.577350
UPb dEllipsoid 14: ellip, q[0/1/3/4]: 19 0.000000 0.577350 0.577350 0.577350
UPb hEllipsoid 15: ellip, q[0/1/3/4]: 20 1.000000 0.000000 0.000000 0.000000
UPb dEllipsoid 15: ellip, q[0/1/3/4]: 20 1.000000 0.000000 0.000000 0.000000
unpack_border_kokkos() call end
Pb Buf 0: q[0/1/3/4]: 0.923785 0.000000 0.382911 0.000000
Pb Buf 1: q[0/1/3/4]: 0.923785 0.000000 0.000000 0.382911
Pb Buf 2: q[0/1/3/4]: 0.923785 0.000000 0.382911 0.000000
pack_border_kokkos() call end
unpack_border_kokkos() call
unpack_border_kokkos() call
UPb hEllipsoid 0: ellip, q[0/1/3/4]: 0 1.000000 0.000000 0.000000 0.000000
UPb hEllipsoid 0: ellip, q[0/1/3/4]: 0 0.707107 0.000000 0.000000 0.707107
UPb dEllipsoid 0: ellip, q[0/1/3/4]: 0 0.707107 0.000000 0.000000 0.707107
UPb hEllipsoid 1: ellip, q[0/1/3/4]: 1 0.707107 0.000000 0.707107 0.000000
UPb dEllipsoid 1: ellip, q[0/1/3/4]: 1 0.707107 0.000000 0.707107 0.000000
UPb hEllipsoid 2: ellip, q[0/1/3/4]: 2 0.577350 0.577350 0.577350 0.000000
UPb dEllipsoid 2: ellip, q[0/1/3/4]: 2 0.577350 0.577350 0.577350 0.000000
UPb dEllipsoid 0: ellip, q[0/1/3/4]: 0 1.000000 0.000000 0.000000 0.000000
UPb hEllipsoid 1: ellip, q[0/1/3/4]: 1 0.923785 0.382911 0.000000 0.000000
UPb dEllipsoid 1: ellip, q[0/1/3/4]: 1 0.923785 0.382911 0.000000 0.000000
UPb hEllipsoid 2: ellip, q[0/1/3/4]: 2 0.923785 0.000000 0.382911 0.000000
UPb hEllipsoid 3: ellip, q[0/1/3/4]: 3 0.577350 0.000000 0.577350 0.577350
UPb dEllipsoid 3: ellip, q[0/1/3/4]: 3 0.577350 0.000000 0.577350 0.577350
UPb hEllipsoid 4: ellip, q[0/1/3/4]: 4 0.000000 0.707107 0.000000 0.707107
UPb dEllipsoid 4: ellip, q[0/1/3/4]: 4 0.000000 0.707107 0.000000 0.707107
UPb hEllipsoid 5: ellip, q[0/1/3/4]: 10 0.000000 0.000000 0.000000 0.000000
UPb dEllipsoid 2: ellip, q[0/1/3/4]: 2 0.923785 0.000000 0.382911 0.000000
UPb hEllipsoid 3: ellip, q[0/1/3/4]: 3 0.923785 0.000000 0.000000 0.382911
UPb dEllipsoid 3: ellip, q[0/1/3/4]: 3 0.923785 0.000000 0.000000 0.382911
UPb dEllipsoid 5: ellip, q[0/1/3/4]: 10 0.000000 0.000000 0.000000 0.000000
UPb hEllipsoid 6: ellip, q[0/1/3/4]: 11 0.000000 0.000000 0.000000 0.000000
UPb dEllipsoid 6: ellip, q[0/1/3/4]: 11 0.000000 0.000000 0.000000 0.000000
UPb hEllipsoid 7: ellip, q[0/1/3/4]: 12 0.000000 0.000000 0.000000 0.000000
UPb dEllipsoid 7: ellip, q[0/1/3/4]: 12 0.000000 0.000000 0.000000 0.000000
unpack_border_kokkos() call end
UPb hEllipsoid 4: ellip, q[0/1/3/4]: 4 0.000000 0.577350 0.577350 0.577350
UPb dEllipsoid 4: ellip, q[0/1/3/4]: 4 0.000000 0.577350 0.577350 0.577350
UPb hEllipsoid 5: ellip, q[0/1/3/4]: 10 0.000000 0.000000 0.000000 0.000000
UPb dEllipsoid 5: ellip, q[0/1/3/4]: 10 0.000000 0.000000 0.000000 0.000000
UPb hEllipsoid 6: ellip, q[0/1/3/4]: 11 0.000000 0.000000 0.000000 0.000000
UPb dEllipsoid 6: ellip, q[0/1/3/4]: 11 0.000000 0.000000 0.000000 0.000000
UPb hEllipsoid 7: ellip, q[0/1/3/4]: 12 0.000000 0.000000 0.000000 0.000000
UPb dEllipsoid 7: ellip, q[0/1/3/4]: 12 0.000000 0.000000 0.000000 0.000000
UPb hEllipsoid 8: ellip, q[0/1/3/4]: 13 0.000000 0.000000 0.000000 0.000000
UPb dEllipsoid 8: ellip, q[0/1/3/4]: 13 0.000000 0.000000 0.000000 0.000000
UPb hEllipsoid 9: ellip, q[0/1/3/4]: 14 0.000000 0.000000 0.000000 0.000000
UPb dEllipsoid 9: ellip, q[0/1/3/4]: 14 0.000000 0.000000 0.000000 0.000000
UPb hEllipsoid 10: ellip, q[0/1/3/4]: 15 1.000000 0.000000 0.000000 0.000000
UPb dEllipsoid 10: ellip, q[0/1/3/4]: 15 1.000000 0.000000 0.000000 0.000000
UPb hEllipsoid 11: ellip, q[0/1/3/4]: 16 0.923785 0.382911 0.000000 0.000000
UPb dEllipsoid 11: ellip, q[0/1/3/4]: 16 0.923785 0.382911 0.000000 0.000000
unpack_border_kokkos() call end
75  ekin = 15624.9993015099 | epot = -8.42733744825064e-12 | etot = 15624.9993015099
76  ekin = 15624.9993015099 | epot = -8.42733744825063e-12 | etot = 15624.9993015099
77  ekin = 15624.9993015099 | epot = -8.42733744825063e-12 | etot = 15624.9993015099
78  ekin = 15624.9993015099 | epot = -8.42733744825063e-12 | etot = 15624.9993015099
79  ekin = 15624.9993015099 | epot = -8.42733744825063e-12 | etot = 15624.9993015099
80  ekin = 15624.9993015099 | epot = -8.42733744825063e-12 | etot = 15624.9993015099
81  ekin = 15624.9993015099 | epot = -8.42733744825062e-12 | etot = 15624.9993015099
82  ekin = 15624.9993015099 | epot = -8.42733744825062e-12 | etot = 15624.9993015099
83  ekin = 15624.9993015099 | epot = -8.42733744825062e-12 | etot = 15624.9993015099
84  ekin = 15624.9993015099 | epot = -8.42733744825062e-12 | etot = 15624.9993015099
85  ekin = 15624.9993015099 | epot = -8.42733744825062e-12 | etot = 15624.9993015099
86  ekin = 15624.9993015099 | epot = -8.42733744825061e-12 | etot = 15624.9993015099
87  ekin = 15624.9993015099 | epot = -8.42733744825061e-12 | etot = 15624.9993015099
88  ekin = 15624.9993015099 | epot = -8.42733744825061e-12 | etot = 15624.9993015099
89  ekin = 15624.9993015099 | epot = -8.42733744825061e-12 | etot = 15624.9993015099
90  ekin = 15624.9993015099 | epot = -8.4273374482506e-12 | etot = 15624.9993015099
91  ekin = 15624.9993015099 | epot = -8.4273374482506e-12 | etot = 15624.9993015099
92  ekin = 15624.9993015099 | epot = -8.4273374482506e-12 | etot = 15624.9993015099
93  ekin = 15624.9993015099 | epot = -8.4273374482506e-12 | etot = 15624.9993015099
94  ekin = 15624.9993015099 | epot = -8.4273374482506e-12 | etot = 15624.9993015099
95  ekin = 15624.9993015099 | epot = -8.42733744825059e-12 | etot = 15624.9993015099
96  ekin = 15624.9993015099 | epot = -8.42733744825059e-12 | etot = 15624.9993015099
97  ekin = 15624.9993015099 | epot = -8.42733744825059e-12 | etot = 15624.9993015099
98  ekin = 15624.9993015099 | epot = -8.42733744825059e-12 | etot = 15624.9993015099
99  ekin = 15624.9993015099 | epot = -8.42733744825058e-12 | etot = 15624.9993015099
100  ekin = 15624.9993015099 | epot = -8.42733744825058e-12 | etot = 15624.9993015099
101  ekin = 15624.9993015099 | epot = -8.42733744825058e-12 | etot = 15624.9993015099
102  ekin = 15624.9993015099 | epot = -8.42733744825058e-12 | etot = 15624.9993015099
103  ekin = 15624.9993015099 | epot = -8.42733744825058e-12 | etot = 15624.9993015099
104  ekin = 15624.9993015099 | epot = -8.42733744825057e-12 | etot = 15624.9993015099
105  ekin = 15624.9993015099 | epot = -8.42733744825057e-12 | etot = 15624.9993015099
106  ekin = 15624.9993015099 | epot = -8.42733744825057e-12 | etot = 15624.9993015099
107  ekin = 15624.9993015099 | epot = -8.42733744825057e-12 | etot = 15624.9993015099
108  ekin = 15624.9993015099 | epot = -8.42733744825056e-12 | etot = 15624.9993015099
109  ekin = 15624.9993015099 | epot = -8.42733744825056e-12 | etot = 15624.9993015099
110  ekin = 15624.9993015099 | epot = -8.42733744825056e-12 | etot = 15624.9993015099
111  ekin = 15624.9993015099 | epot = -8.42733744825056e-12 | etot = 15624.9993015099
112  ekin = 15624.9993015099 | epot = -8.42733744825056e-12 | etot = 15624.9993015099
113  ekin = 15624.9993015099 | epot = -8.42733744825055e-12 | etot = 15624.9993015099
114  ekin = 15624.9993015099 | epot = -8.42733744825055e-12 | etot = 15624.9993015099
115  ekin = 15624.9993015099 | epot = -8.42733744825055e-12 | etot = 15624.9993015099
116  ekin = 15624.9993015099 | epot = -8.42733744825055e-12 | etot = 15624.9993015099
117  ekin = 15624.9993015099 | epot = -8.42733744825054e-12 | etot = 15624.9993015099
118  ekin = 15624.9993015099 | epot = -8.42733744825054e-12 | etot = 15624.9993015099
119  ekin = 15624.9993015099 | epot = -8.42733744825054e-12 | etot = 15624.9993015099
120  ekin = 15624.9993015099 | epot = -8.42733744825054e-12 | etot = 15624.9993015099
121  ekin = 15624.9993015099 | epot = -8.42733744825054e-12 | etot = 15624.9993015099
122  ekin = 15624.9993015099 | epot = -8.42733744825053e-12 | etot = 15624.9993015099
123  ekin = 15624.9993015099 | epot = -8.42733744825053e-12 | etot = 15624.9993015099
124  ekin = 15624.9993015099 | epot = -8.42733744825053e-12 | etot = 15624.9993015099
125  ekin = 15624.9993015099 | epot = -8.42733744825053e-12 | etot = 15624.9993015099
126  ekin = 15624.9993015099 | epot = -8.42733744825053e-12 | etot = 15624.9993015099
127  ekin = 15624.9993015099 | epot = -8.42733744825052e-12 | etot = 15624.9993015099
128  ekin = 15624.9993015099 | epot = -8.42733744825052e-12 | etot = 15624.9993015099
129  ekin = 15624.9993015099 | epot = -8.42733744825052e-12 | etot = 15624.9993015099
130  ekin = 15624.9993015099 | epot = -8.42733744825052e-12 | etot = 15624.9993015099
131  ekin = 15624.9993015099 | epot = -8.42733744825051e-12 | etot = 15624.9993015099
132  ekin = 15624.9993015099 | epot = -8.42733744825051e-12 | etot = 15624.9993015099
133  ekin = 15624.9993015099 | epot = -8.42733744825051e-12 | etot = 15624.9993015099
134  ekin = 15624.9993015099 | epot = -8.42733744825051e-12 | etot = 15624.9993015099
135  ekin = 15624.9993015099 | epot = -8.42733744825051e-12 | etot = 15624.9993015099
136  ekin = 15624.9993015099 | epot = -8.4273374482505e-12 | etot = 15624.9993015099
137  ekin = 15624.9993015099 | epot = -8.4273374482505e-12 | etot = 15624.9993015099
138  ekin = 15624.9993015099 | epot = -8.4273374482505e-12 | etot = 15624.9993015099
139  ekin = 15624.9993015099 | epot = -8.4273374482505e-12 | etot = 15624.9993015099
140  ekin = 15624.9993015099 | epot = -8.42733744825049e-12 | etot = 15624.9993015099
141  ekin = 15624.9993015099 | epot = -8.42733744825049e-12 | etot = 15624.9993015099
142  ekin = 15624.9993015099 | epot = -8.42733744825049e-12 | etot = 15624.9993015099
143  ekin = 15624.9993015099 | epot = -8.42733744825049e-12 | etot = 15624.9993015099
144  ekin = 15624.9993015099 | epot = -8.42733744825049e-12 | etot = 15624.9993015099
145  ekin = 15624.9993015099 | epot = -8.42733744825048e-12 | etot = 15624.9993015099
146  ekin = 15624.9993015099 | epot = -8.42733744825048e-12 | etot = 15624.9993015099
147  ekin = 15624.9993015099 | epot = -8.42733744825048e-12 | etot = 15624.9993015099
148  ekin = 15624.9993015099 | epot = -8.42733744825048e-12 | etot = 15624.9993015099
149  ekin = 15624.9993015099 | epot = -8.42733744825047e-12 | etot = 15624.9993015099
k_count_bonus.h_view(0) = 5
nlocal_bonus = 5
pack_exchange_kokkos() call end
k_count_bonus.h_view(0) = 5
nlocal_bonus = 5
pack_exchange_kokkos() call end
k_count_bonus.h_view(0) = 5
nlocal_bonus = 5
pack_exchange_kokkos() call end
k_count_bonus.h_view(0) = 5
nlocal_bonus = 5
pack_exchange_kokkos() call end
/------------------------------------------------------------------/
Pex Inline: i = 3, mysend = 0
_buf(mysend,[0/1/2/3]) = 23.000000 6.971248 -1.993936 -6.706610
_buf(mysend,[4/5/6]) = 0.000000 0.000000 10.000000 
k_count_bonus.h_view(0) = 5
nlocal_bonus = 5
pack_exchange_kokkos() call end
_buf(mysend,[7/8/9/10]) = 0.000000 0.000000 0.000000 0.000000
_buf(mysend,[11/12/13/14]) = 31.249999 0.000000 0.000000 0.000000
_buf(mysend,[15/16/17/18]) = 0.000000 0.250000 0.250000 0.500000
_buf(mysend,[19/20/21/22]) = 0.577350 0.000000 0.577350 0.577350
/------------------------/
Pex Inline (copy): j = 4, mysend = 0
_xw(i,[0/1/2]) = 5.265970 -2.917264 -1.167568
_vw(i,[0/1/2]) = -0.000000 0.000000 10.000000
_tagw[i], _typew[i], _maskw[i], _imagew[i] = 5 1 3 537395712
_rmassw(i) = 31.249999
_angmomw(i,[0/1/2]) = 0.000000 0.000000 0.000000
_bonusw(i): shape[0/1/2] = 0.250000 0.500000 0.250000
_bonusw(i): quat[0/1/2/3] = 0.000000 0.707107 0.000000 0.707107
/------------------------------------------------------------------/
k_count_bonus.h_view(0) = 5
nlocal_bonus = 5
Pex Buf 0 (Proc 1): d_ubuf, q[0/1/3/4]: 0.000000 0.577350 0.000000 0.577350 0.577350
pack_exchange_kokkos() call end
unpack_exchange_kokkos() call
UPex (Start) Ellipsoid 0 (Proc 0): q[0/1/3/4]: 1.000000 0.000000 0.000000 0.000000
UPex (Start) Ellipsoid 1 (Proc 0): q[0/1/3/4]: 0.923785 0.382911 0.000000 0.000000
UPex (Start) Ellipsoid 2 (Proc 0): q[0/1/3/4]: 0.923785 0.000000 0.382911 0.000000
UPex (Start) Ellipsoid 3 (Proc 0): q[0/1/3/4]: 0.923785 0.000000 0.000000 0.382911
UPex (Start) Ellipsoid 4 (Proc 0): q[0/1/3/4]: 0.000000 0.577350 0.577350 0.577350
nlocal, atom->nlocal, nlocal_bonus = 5, 5, 5
nrecv/size_exchange = 1
Pb Buf 0: q[0/1/3/4]: 0.707107 0.000000 0.000000 0.707107
Pb Buf 1: q[0/1/3/4]: 0.000000 0.707107 0.000000 0.707107
Pb Buf 2: q[0/1/3/4]: 0.000000 0.000000 0.000000 0.000000
pack_border_kokkos() call end
unpack_border_kokkos() call
UPb hEllipsoid 0: ellip, q[0/1/3/4]: 0 0.707107 0.000000 0.000000 0.707107
UPb dEllipsoid 0: ellip, q[0/1/3/4]: 0 0.707107 0.000000 0.000000 0.707107
UPb hEllipsoid 1: ellip, q[0/1/3/4]: 1 0.707107 0.000000 0.707107 0.000000
/------------------------------------------------------------------/
UPex Inline: i = 5
_x(i,0), _x(i,1), _x(i,2) = 6.971248 -1.993936 -6.706610
_v(i,0), _v(i,1), _v(i,2) = 0.000000 0.000000 10.000000
_tag[i], _type[i], _mask[i] = 9 1 3
_image[i], _rmass[i] = 538444288 31.249999
_angmom(i,0), _angmom(i,1), _angmom(i,2) = 0.000000 0.000000 0.000000
_bonus(i): shape[0/1/2] = 0.250000 0.250000 0.500000
UPb dEllipsoid 1: ellip, q[0/1/3/4]: 1 0.707107 0.000000 0.707107 0.000000
unpack_border_kokkos() call end
Pb Buf 0: q[0/1/3/4]: 0.707107 0.000000 0.000000 0.707107
Pb Buf 1: q[0/1/3/4]: 0.707107 0.000000 0.707107 0.000000
Pb Buf 2: q[0/1/3/4]: 0.577350 0.577350 0.577350 0.000000
pack_border_kokkos() call end
unpack_border_kokkos() call
UPb hEllipsoid 0: ellip, q[0/1/3/4]: 0 0.707107 0.000000 0.000000 0.707107
_bonus(i): quat[0/1/2/3] = 0.577350 0.000000 0.577350 0.577350
_bonus(i).ilocal = 5
_ellipsoid(i) = 5
/------------------------------------------------------------------/
UPex (End) Ellipsoid 0 (Proc 0): q[0/1/3/4]: 1.000000 0.000000 0.000000 0.000000
UPex (End) Ellipsoid 1 (Proc 0): q[0/1/3/4]: 0.923785 0.382911 0.000000 0.000000
UPex (End) Ellipsoid 2 (Proc 0): q[0/1/3/4]: 0.923785 0.000000 0.382911 0.000000
UPex (End) Ellipsoid 3 (Proc 0): q[0/1/3/4]: 0.923785 0.000000 0.000000 0.382911
UPex (End) Ellipsoid 4 (Proc 0): q[0/1/3/4]: 0.000000 0.577350 0.577350 0.577350
UPb dEllipsoid 0: ellip, q[0/1/3/4]: 0 0.707107 0.000000 0.000000 0.707107
UPb hEllipsoid 1: ellip, q[0/1/3/4]: 1 0.707107 0.000000 0.707107 0.000000
UPb dEllipsoid 1: ellip, q[0/1/3/4]: 1 0.707107 0.000000 0.707107 0.000000
UPb hEllipsoid 2: ellip, q[0/1/3/4]: 2 0.577350 0.577350 0.577350 0.000000
UPb dEllipsoid 2: ellip, q[0/1/3/4]: 2 0.577350 0.577350 0.577350 0.000000
unpack_border_kokkos() call end
Pb Buf 0: q[0/1/3/4]: 0.707107 0.000000 0.000000 0.707107
Pb Buf 1: q[0/1/3/4]: 0.707107 0.000000 0.707107 0.000000
Pb Buf 2: q[0/1/3/4]: 0.577350 0.577350 0.577350 0.000000
UPex (End) Ellipsoid 5 (Proc 0): q[0/1/3/4]: 0.577350 0.000000 0.577350 0.577350
unpack_exchange_kokkos() call end
Pb Buf 0: q[0/1/3/4]: 1.000000 0.000000 0.000000 0.000000
pack_border_kokkos() call end
unpack_border_kokkos() call
UPb hEllipsoid 0: ellip, q[0/1/3/4]: 0 0.707107 0.000000 0.000000 0.707107
UPb dEllipsoid 0: ellip, q[0/1/3/4]: 0 0.707107 0.000000 0.000000 0.707107
UPb hEllipsoid 1: ellip, q[0/1/3/4]: 1 0.707107 0.000000 0.707107 0.000000
UPb dEllipsoid 1: ellip, q[0/1/3/4]: 1 0.707107 0.000000 0.707107 0.000000
UPb hEllipsoid 2: ellip, q[0/1/3/4]: 2 0.577350 0.577350 0.577350 0.000000
UPb dEllipsoid 2: ellip, q[0/1/3/4]: 2 0.577350 0.577350 0.577350 0.000000
UPb hEllipsoid 3: ellip, q[0/1/3/4]: 3 0.000000 0.707107 0.000000 0.707107
Pb Buf 1: q[0/1/3/4]: 0.923785 0.382911 0.000000 0.000000
Pb Buf 2: q[0/1/3/4]: 0.923785 0.000000 0.382911 0.000000
pack_border_kokkos() call end
unpack_border_kokkos() call
UPb hEllipsoid 0: ellip, q[0/1/3/4]: 0 1.000000 0.000000 0.000000 0.000000
UPb dEllipsoid 0: ellip, q[0/1/3/4]: 0 1.000000 0.000000 0.000000 0.000000
UPb dEllipsoid 3: ellip, q[0/1/3/4]: 3 0.000000 0.707107 0.000000 0.707107
UPb hEllipsoid 4: ellip, q[0/1/3/4]: 9 0.000000 0.707107 0.000000 0.707107
UPb dEllipsoid 4: ellip, q[0/1/3/4]: 9 0.000000 0.707107 0.000000 0.707107
UPb hEllipsoid 5: ellip, q[0/1/3/4]: 10 0.000000 0.000000 0.000000 0.000000
UPb dEllipsoid 5: ellip, q[0/1/3/4]: 10 0.000000 0.000000 0.000000 0.000000
UPb hEllipsoid 6: ellip, q[0/1/3/4]: 11 0.000000 0.000000 0.000000 0.000000
UPb dEllipsoid 6: ellip, q[0/1/3/4]: 11 0.000000 0.000000 0.000000 0.000000
UPb hEllipsoid 7: ellip, q[0/1/3/4]: 12 0.000000 0.000000 0.000000 0.000000
UPb dEllipsoid 7: ellip, q[0/1/3/4]: 12 0.000000 0.000000 0.000000 0.000000
UPb hEllipsoid 8: ellip, q[0/1/3/4]: 13 0.000000 0.000000 0.000000 0.000000
UPb hEllipsoid 1: ellip, q[0/1/3/4]: 1 0.923785 0.382911 0.000000 0.000000
UPb dEllipsoid 1: ellip, q[0/1/3/4]: 1 0.923785 0.382911 0.000000 0.000000
UPb hEllipsoid 2: ellip, q[0/1/3/4]: 2 0.923785 0.000000 0.382911 0.000000
UPb dEllipsoid 2: ellip, q[0/1/3/4]: 2 0.923785 0.000000 0.382911 0.000000
UPb hEllipsoid 3: ellip, q[0/1/3/4]: 3 0.923785 0.000000 0.000000 0.382911
UPb dEllipsoid 3: ellip, q[0/1/3/4]: 3 0.923785 0.000000 0.000000 0.382911
unpack_border_kokkos() call end
UPb dEllipsoid 8: ellip, q[0/1/3/4]: 13 0.000000 0.000000 0.000000 0.000000
unpack_border_kokkos() call end
Pb Buf 0: q[0/1/3/4]: 0.707107 0.000000 0.707107 0.000000
Pb Buf 1: q[0/1/3/4]: 0.577350 0.577350 0.577350 0.000000
Pb Buf 2: q[0/1/3/4]: 0.707107 0.000000 0.707107 0.000000
pack_border_kokkos() call end
unpack_border_kokkos() call
UPb hEllipsoid 0: ellip, q[0/1/3/4]: 0 0.707107 0.000000 0.000000 0.707107
Pb Buf 0: q[0/1/3/4]: 0.000000 0.577350 0.577350 0.577350
Pb Buf 1: q[0/1/3/4]: 0.577350 0.000000 0.577350 0.577350
Pb Buf 2: q[0/1/3/4]: 0.923785 0.000000 0.382911 0.000000
pack_border_kokkos() call end
unpack_border_kokkos() call
UPb hEllipsoid 0: ellip, q[0/1/3/4]: 0 1.000000 0.000000 0.000000 0.000000
UPb dEllipsoid 0: ellip, q[0/1/3/4]: 0 0.707107 0.000000 0.000000 0.707107
UPb hEllipsoid 1: ellip, q[0/1/3/4]: 1 0.707107 0.000000 0.707107 0.000000
UPb dEllipsoid 1: ellip, q[0/1/3/4]: 1 0.707107 0.000000 0.707107 0.000000
UPb hEllipsoid 2: ellip, q[0/1/3/4]: 2 0.577350 0.577350 0.577350 0.000000
UPb dEllipsoid 2: ellip, q[0/1/3/4]: 2 0.577350 0.577350 0.577350 0.000000
UPb hEllipsoid 3: ellip, q[0/1/3/4]: 3 0.000000 0.707107 0.000000 0.707107
UPb dEllipsoid 3: ellip, q[0/1/3/4]: 3 0.000000 0.707107 0.000000 0.707107
unpack_border_kokkos() call end
UPb dEllipsoid 0: ellip, q[0/1/3/4]: 0 1.000000 0.000000 0.000000 0.000000
UPb hEllipsoid 1: ellip, q[0/1/3/4]: 1 0.923785 0.382911 0.000000 0.000000
UPb dEllipsoid 1: ellip, q[0/1/3/4]: 1 0.923785 0.382911 0.000000 0.000000
unpack_border_kokkos() call end
Pb Buf 0: q[0/1/3/4]: 1.000000 0.000000 0.000000 0.000000
Pb Buf 0: q[0/1/3/4]: 0.707107 0.000000 0.000000 0.707107
Pb Buf 1: q[0/1/3/4]: 0.000000 0.707107 0.000000 0.707107
Pb Buf 2: q[0/1/3/4]: 0.707107 0.000000 0.000000 0.707107
pack_border_kokkos() call end
Pb Buf 1: q[0/1/3/4]: 0.923785 0.382911 0.000000 0.000000
Pb Buf 2: q[0/1/3/4]: 0.923785 0.000000 0.382911 0.000000
pack_border_kokkos() call end
unpack_border_kokkos() call
UPb hEllipsoid 0: ellip, q[0/1/3/4]: 0 1.000000 0.000000 0.000000 0.000000
UPb dEllipsoid 0: ellip, q[0/1/3/4]: 0 1.000000 0.000000 0.000000 0.000000
UPb hEllipsoid 1: ellip, q[0/1/3/4]: 1 0.923785 0.382911 0.000000 0.000000
UPb dEllipsoid 1: ellip, q[0/1/3/4]: 1 0.923785 0.382911 0.000000 0.000000
UPb hEllipsoid 2: ellip, q[0/1/3/4]: 2 0.923785 0.000000 0.382911 0.000000
UPb dEllipsoid 2: ellip, q[0/1/3/4]: 2 0.923785 0.000000 0.382911 0.000000
UPb hEllipsoid 3: ellip, q[0/1/3/4]: 3 0.923785 0.000000 0.000000 0.382911
UPb dEllipsoid 3: ellip, q[0/1/3/4]: 3 0.923785 0.000000 0.000000 0.382911
UPb hEllipsoid 4: ellip, q[0/1/3/4]: 4 0.000000 0.577350 0.577350 0.577350
UPb dEllipsoid 4: ellip, q[0/1/3/4]: 4 0.000000 0.577350 0.577350 0.577350
UPb hEllipsoid 5: ellip, q[0/1/3/4]: 5 0.577350 0.000000 0.577350 0.577350
UPb dEllipsoid 5: ellip, q[0/1/3/4]: 5 0.577350 0.000000 0.577350 0.577350
UPb hEllipsoid 6: ellip, q[0/1/3/4]: 11 0.000000 0.000000 0.000000 0.000000
UPb dEllipsoid 6: ellip, q[0/1/3/4]: 11 0.000000 0.000000 0.000000 0.000000
UPb hEllipsoid 7: ellip, q[0/1/3/4]: 12 0.000000 0.000000 0.000000 0.000000
UPb dEllipsoid 7: ellip, q[0/1/3/4]: 12 0.000000 0.000000 0.000000 0.000000
UPb hEllipsoid 8: ellip, q[0/1/3/4]: 13 0.000000 0.000000 0.000000 0.000000
UPb dEllipsoid 8: ellip, q[0/1/3/4]: 13 0.000000 0.000000 0.000000 0.000000
UPb hEllipsoid 9: ellip, q[0/1/3/4]: 14 0.000000 0.000000 0.000000 0.000000
UPb dEllipsoid 9: ellip, q[0/1/3/4]: 14 0.000000 0.000000 0.000000 0.000000
UPb hEllipsoid 10: ellip, q[0/1/3/4]: 15 1.000000 0.000000 0.000000 0.000000
UPb dEllipsoid 10: ellip, q[0/1/3/4]: 15 1.000000 0.000000 0.000000 0.000000
UPb hEllipsoid 11: ellip, q[0/1/3/4]: 16 1.000000 0.000000 0.000000 0.000000
UPb dEllipsoid 11: ellip, q[0/1/3/4]: 16 1.000000 0.000000 0.000000 0.000000
unpack_border_kokkos() call end
Pb Buf 0: q[0/1/3/4]: 0.000000 0.577350 0.577350 0.577350
Pb Buf 1: q[0/1/3/4]: 0.577350 0.000000 0.577350 0.577350
Pb Buf 2: q[0/1/3/4]: 0.000000 0.577350 0.577350 0.577350
pack_border_kokkos() call end
unpack_border_kokkos() call
UPb hEllipsoid 0: ellip, q[0/1/3/4]: 0 1.000000 0.000000 0.000000 0.000000
UPb dEllipsoid 0: ellip, q[0/1/3/4]: 0 1.000000 0.000000 0.000000 0.000000
UPb hEllipsoid 1: ellip, q[0/1/3/4]: 1 0.923785 0.382911 0.000000 0.000000
UPb dEllipsoid 1: ellip, q[0/1/3/4]: 1 0.923785 0.382911 0.000000 0.000000
UPb hEllipsoid 2: ellip, q[0/1/3/4]: 2 0.923785 0.000000 0.382911 0.000000
UPb dEllipsoid 2: ellip, q[0/1/3/4]: 2 0.923785 0.000000 0.382911 0.000000
UPb hEllipsoid 3: ellip, q[0/1/3/4]: 3 0.923785 0.000000 0.000000 0.382911
UPb dEllipsoid 3: ellip, q[0/1/3/4]: 3 0.923785 0.000000 0.000000 0.382911
unpack_border_kokkos() call end
Pb Buf 0: q[0/1/3/4]: 1.000000 0.000000 0.000000 0.000000
Pb Buf 1: q[0/1/3/4]: 0.000000 0.577350 0.577350 0.577350
Pb Buf 2: q[0/1/3/4]: 0.577350 0.000000 0.577350 0.577350
pack_border_kokkos() call end
unpack_border_kokkos() call
UPb hEllipsoid 0: ellip, q[0/1/3/4]: 0 1.000000 0.000000 0.000000 0.000000
unpack_border_kokkos() call
UPb hEllipsoid 0: ellip, q[0/1/3/4]: 0 0.707107 0.000000 0.000000 0.707107
UPb dEllipsoid 0: ellip, q[0/1/3/4]: 0 0.707107 0.000000 0.000000 0.707107
UPb hEllipsoid 1: ellip, q[0/1/3/4]: 1 0.707107 0.000000 0.707107 0.000000
UPb dEllipsoid 1: ellip, q[0/1/3/4]: 1 0.707107 0.000000 0.707107 0.000000
UPb hEllipsoid 2: ellip, q[0/1/3/4]: 2 0.577350 0.577350 0.577350 0.000000
UPb dEllipsoid 0: ellip, q[0/1/3/4]: 0 1.000000 0.000000 0.000000 0.000000
UPb hEllipsoid 1: ellip, q[0/1/3/4]: 1 0.923785 0.382911 0.000000 0.000000
UPb dEllipsoid 1: ellip, q[0/1/3/4]: 1 0.923785 0.382911 0.000000 0.000000
UPb hEllipsoid 2: ellip, q[0/1/3/4]: 2 0.923785 0.000000 0.382911 0.000000
UPb dEllipsoid 2: ellip, q[0/1/3/4]: 2 0.923785 0.000000 0.382911 0.000000
UPb hEllipsoid 3: ellip, q[0/1/3/4]: 3 0.923785 0.000000 0.000000 0.382911
UPb dEllipsoid 2: ellip, q[0/1/3/4]: 2 0.577350 0.577350 0.577350 0.000000
UPb hEllipsoid 3: ellip, q[0/1/3/4]: 3 0.000000 0.707107 0.000000 0.707107
UPb dEllipsoid 3: ellip, q[0/1/3/4]: 3 0.000000 0.707107 0.000000 0.707107
UPb hEllipsoid 4: ellip, q[0/1/3/4]: 9 0.000000 0.707107 0.000000 0.707107
UPb dEllipsoid 4: ellip, q[0/1/3/4]: 9 0.000000 0.707107 0.000000 0.707107
UPb hEllipsoid 5: ellip, q[0/1/3/4]: 10 0.000000 0.000000 0.000000 0.000000
UPb dEllipsoid 5: ellip, q[0/1/3/4]: 10 0.000000 0.000000 0.000000 0.000000
UPb hEllipsoid 6: ellip, q[0/1/3/4]: 11 0.000000 0.000000 0.000000 0.000000
UPb dEllipsoid 6: ellip, q[0/1/3/4]: 11 0.000000 0.000000 0.000000 0.000000
UPb hEllipsoid 7: ellip, q[0/1/3/4]: 12 0.000000 0.000000 0.000000 0.000000
UPb dEllipsoid 3: ellip, q[0/1/3/4]: 3 0.923785 0.000000 0.000000 0.382911
UPb hEllipsoid 4: ellip, q[0/1/3/4]: 4 0.000000 0.577350 0.577350 0.577350
UPb dEllipsoid 4: ellip, q[0/1/3/4]: 4 0.000000 0.577350 0.577350 0.577350
UPb hEllipsoid 5: ellip, q[0/1/3/4]: 5 0.577350 0.000000 0.577350 0.577350
UPb dEllipsoid 5: ellip, q[0/1/3/4]: 5 0.577350 0.000000 0.577350 0.577350
UPb hEllipsoid 6: ellip, q[0/1/3/4]: 11 0.000000 0.000000 0.000000 0.000000
UPb dEllipsoid 6: ellip, q[0/1/3/4]: 11 0.000000 0.000000 0.000000 0.000000
UPb hEllipsoid 7: ellip, q[0/1/3/4]: 12 0.000000 0.000000 0.000000 0.000000
UPb dEllipsoid 7: ellip, q[0/1/3/4]: 12 0.000000 0.000000 0.000000 0.000000
UPb hEllipsoid 8: ellip, q[0/1/3/4]: 13 0.000000 0.000000 0.000000 0.000000
UPb dEllipsoid 8: ellip, q[0/1/3/4]: 13 0.000000 0.000000 0.000000 0.000000
UPb hEllipsoid 9: ellip, q[0/1/3/4]: 14 0.707107 0.000000 0.000000 0.707107
UPb dEllipsoid 9: ellip, q[0/1/3/4]: 14 0.707107 0.000000 0.000000 0.707107
UPb hEllipsoid 10: ellip, q[0/1/3/4]: 15 0.000000 0.707107 0.000000 0.707107
UPb dEllipsoid 10: ellip, q[0/1/3/4]: 15 0.000000 0.707107 0.000000 0.707107
UPb hEllipsoid 11: ellip, q[0/1/3/4]: 16 0.707107 0.000000 0.000000 0.707107
UPb dEllipsoid 11: ellip, q[0/1/3/4]: 16 0.707107 0.000000 0.000000 0.707107
UPb hEllipsoid 12: ellip, q[0/1/3/4]: 17 0.707107 0.000000 0.707107 0.000000
UPb dEllipsoid 7: ellip, q[0/1/3/4]: 12 0.000000 0.000000 0.000000 0.000000
UPb hEllipsoid 8: ellip, q[0/1/3/4]: 13 0.000000 0.000000 0.000000 0.000000
UPb dEllipsoid 8: ellip, q[0/1/3/4]: 13 0.000000 0.000000 0.000000 0.000000
UPb hEllipsoid 9: ellip, q[0/1/3/4]: 14 0.000000 0.000000 0.000000 0.000000
UPb dEllipsoid 9: ellip, q[0/1/3/4]: 14 0.000000 0.000000 0.000000 0.000000
unpack_border_kokkos() call end
UPb dEllipsoid 12: ellip, q[0/1/3/4]: 17 0.707107 0.000000 0.707107 0.000000
UPb hEllipsoid 13: ellip, q[0/1/3/4]: 18 0.577350 0.577350 0.577350 0.000000
UPb dEllipsoid 13: ellip, q[0/1/3/4]: 18 0.577350 0.577350 0.577350 0.000000
UPb hEllipsoid 14: ellip, q[0/1/3/4]: 19 0.707107 0.000000 0.000000 0.707107
UPb dEllipsoid 14: ellip, q[0/1/3/4]: 19 0.707107 0.000000 0.000000 0.707107
UPb hEllipsoid 15: ellip, q[0/1/3/4]: 20 0.707107 0.000000 0.707107 0.000000
UPb dEllipsoid 15: ellip, q[0/1/3/4]: 20 0.707107 0.000000 0.707107 0.000000
unpack_border_kokkos() call end
Pb Buf 0: q[0/1/3/4]: 0.923785 0.382911 0.000000 0.000000
Pb Buf 1: q[0/1/3/4]: 0.923785 0.000000 0.382911 0.000000
Pb Buf 2: q[0/1/3/4]: 0.923785 0.000000 0.000000 0.382911
pack_border_kokkos() call end
Pb Buf 0: q[0/1/3/4]: 0.707107 0.000000 0.707107 0.000000
Pb Buf 1: q[0/1/3/4]: 0.577350 0.577350 0.577350 0.000000
Pb Buf 2: q[0/1/3/4]: 0.707107 0.000000 0.707107 0.000000
pack_border_kokkos() call end
unpack_border_kokkos() call
unpack_border_kokkos() call
UPb hEllipsoid 0: ellip, q[0/1/3/4]: 0 1.000000 0.000000 0.000000 0.000000
UPb dEllipsoid 0: ellip, q[0/1/3/4]: 0 1.000000 0.000000 0.000000 0.000000
UPb hEllipsoid 1: ellip, q[0/1/3/4]: 1 0.923785 0.382911 0.000000 0.000000
UPb dEllipsoid 1: ellip, q[0/1/3/4]: 1 0.923785 0.382911 0.000000 0.000000
UPb hEllipsoid 0: ellip, q[0/1/3/4]: 0 0.707107 0.000000 0.000000 0.707107
UPb dEllipsoid 0: ellip, q[0/1/3/4]: 0 0.707107 0.000000 0.000000 0.707107
UPb hEllipsoid 1: ellip, q[0/1/3/4]: 1 0.707107 0.000000 0.707107 0.000000
UPb dEllipsoid 1: ellip, q[0/1/3/4]: 1 0.707107 0.000000 0.707107 0.000000
UPb hEllipsoid 2: ellip, q[0/1/3/4]: 2 0.577350 0.577350 0.577350 0.000000
UPb dEllipsoid 2: ellip, q[0/1/3/4]: 2 0.577350 0.577350 0.577350 0.000000
UPb hEllipsoid 3: ellip, q[0/1/3/4]: 3 0.000000 0.707107 0.000000 0.707107
UPb dEllipsoid 3: ellip, q[0/1/3/4]: 3 0.000000 0.707107 0.000000 0.707107
UPb hEllipsoid 4: ellip, q[0/1/3/4]: 9 0.000000 0.707107 0.000000 0.707107
UPb hEllipsoid 2: ellip, q[0/1/3/4]: 2 0.923785 0.000000 0.382911 0.000000
UPb dEllipsoid 2: ellip, q[0/1/3/4]: 2 0.923785 0.000000 0.382911 0.000000
UPb hEllipsoid 3: ellip, q[0/1/3/4]: 3 0.923785 0.000000 0.000000 0.382911
UPb dEllipsoid 3: ellip, q[0/1/3/4]: 3 0.923785 0.000000 0.000000 0.382911
UPb hEllipsoid 4: ellip, q[0/1/3/4]: 4 0.000000 0.577350 0.577350 0.577350
UPb dEllipsoid 4: ellip, q[0/1/3/4]: 4 0.000000 0.577350 0.577350 0.577350
UPb hEllipsoid 5: ellip, q[0/1/3/4]: 5 0.577350 0.000000 0.577350 0.577350
UPb dEllipsoid 4: ellip, q[0/1/3/4]: 9 0.000000 0.707107 0.000000 0.707107
UPb hEllipsoid 5: ellip, q[0/1/3/4]: 10 0.000000 0.000000 0.000000 0.000000
UPb dEllipsoid 5: ellip, q[0/1/3/4]: 10 0.000000 0.000000 0.000000 0.000000
UPb hEllipsoid 6: ellip, q[0/1/3/4]: 11 0.000000 0.000000 0.000000 0.000000
UPb dEllipsoid 6: ellip, q[0/1/3/4]: 11 0.000000 0.000000 0.000000 0.000000
UPb hEllipsoid 7: ellip, q[0/1/3/4]: 12 0.000000 0.000000 0.000000 0.000000
UPb dEllipsoid 7: ellip, q[0/1/3/4]: 12 0.000000 0.000000 0.000000 0.000000
UPb hEllipsoid 8: ellip, q[0/1/3/4]: 13 0.000000 0.000000 0.000000 0.000000
UPb dEllipsoid 8: ellip, q[0/1/3/4]: 13 0.000000 0.000000 0.000000 0.000000
UPb hEllipsoid 9: ellip, q[0/1/3/4]: 14 0.707107 0.000000 0.000000 0.707107
UPb dEllipsoid 9: ellip, q[0/1/3/4]: 14 0.707107 0.000000 0.000000 0.707107
UPb dEllipsoid 5: ellip, q[0/1/3/4]: 5 0.577350 0.000000 0.577350 0.577350
UPb hEllipsoid 6: ellip, q[0/1/3/4]: 11 0.000000 0.000000 0.000000 0.000000
UPb dEllipsoid 6: ellip, q[0/1/3/4]: 11 0.000000 0.000000 0.000000 0.000000
UPb hEllipsoid 7: ellip, q[0/1/3/4]: 12 0.000000 0.000000 0.000000 0.000000
UPb dEllipsoid 7: ellip, q[0/1/3/4]: 12 0.000000 0.000000 0.000000 0.000000
UPb hEllipsoid 8: ellip, q[0/1/3/4]: 13 0.000000 0.000000 0.000000 0.000000
UPb dEllipsoid 8: ellip, q[0/1/3/4]: 13 0.000000 0.000000 0.000000 0.000000
UPb hEllipsoid 9: ellip, q[0/1/3/4]: 14 0.000000 0.000000 0.000000 0.000000
UPb dEllipsoid 9: ellip, q[0/1/3/4]: 14 0.000000 0.000000 0.000000 0.000000
UPb hEllipsoid 10: ellip, q[0/1/3/4]: 15 0.000000 0.707107 0.000000 0.707107
UPb dEllipsoid 10: ellip, q[0/1/3/4]: 15 0.000000 0.707107 0.000000 0.707107
UPb hEllipsoid 11: ellip, q[0/1/3/4]: 16 0.707107 0.000000 0.000000 0.707107
UPb dEllipsoid 11: ellip, q[0/1/3/4]: 16 0.707107 0.000000 0.000000 0.707107
unpack_border_kokkos() call end
UPb hEllipsoid 10: ellip, q[0/1/3/4]: 15 1.000000 0.000000 0.000000 0.000000
UPb dEllipsoid 10: ellip, q[0/1/3/4]: 15 1.000000 0.000000 0.000000 0.000000
UPb hEllipsoid 11: ellip, q[0/1/3/4]: 16 1.000000 0.000000 0.000000 0.000000
UPb dEllipsoid 11: ellip, q[0/1/3/4]: 16 1.000000 0.000000 0.000000 0.000000
unpack_border_kokkos() call end
150  ekin = 15624.9993015099 | epot = -8.42733744825047e-12 | etot = 15624.9993015099
151  ekin = 15624.9993015099 | epot = -8.42733744825047e-12 | etot = 15624.9993015099
152  ekin = 15624.9993015099 | epot = -8.42733744825047e-12 | etot = 15624.9993015099
153  ekin = 15624.9993015099 | epot = -8.42733744825047e-12 | etot = 15624.9993015099
154  ekin = 15624.9993015099 | epot = -8.42733744825046e-12 | etot = 15624.9993015099
155  ekin = 15624.9993015099 | epot = -8.42733744825046e-12 | etot = 15624.9993015099
156  ekin = 15624.9993015099 | epot = -8.42733744825046e-12 | etot = 15624.9993015099
157  ekin = 15624.9993015099 | epot = -8.42733744825046e-12 | etot = 15624.9993015099
158  ekin = 15624.9993015099 | epot = -8.42733744825045e-12 | etot = 15624.9993015099
159  ekin = 15624.9993015099 | epot = -8.42733744825045e-12 | etot = 15624.9993015099
160  ekin = 15624.9993015099 | epot = -8.42733744825045e-12 | etot = 15624.9993015099
161  ekin = 15624.9993015099 | epot = -8.42733744825045e-12 | etot = 15624.9993015099
162  ekin = 15624.9993015099 | epot = -8.42733744825044e-12 | etot = 15624.9993015099
163  ekin = 15624.9993015099 | epot = -8.42733744825044e-12 | etot = 15624.9993015099
164  ekin = 15624.9993015099 | epot = -8.42733744825044e-12 | etot = 15624.9993015099
165  ekin = 15624.9993015099 | epot = -8.42733744825044e-12 | etot = 15624.9993015099
166  ekin = 15624.9993015099 | epot = -8.42733744825043e-12 | etot = 15624.9993015099
167  ekin = 15624.9993015099 | epot = -8.42733744825043e-12 | etot = 15624.9993015099
168  ekin = 15624.9993015099 | epot = -8.42733744825043e-12 | etot = 15624.9993015099
169  ekin = 15624.9993015099 | epot = -8.42733744825042e-12 | etot = 15624.9993015099
170  ekin = 15624.9993015099 | epot = -8.42733744825042e-12 | etot = 15624.9993015099
171  ekin = 15624.9993015099 | epot = -8.42733744825041e-12 | etot = 15624.9993015099
172  ekin = 15624.9993015099 | epot = -8.42733744825041e-12 | etot = 15624.9993015099
173  ekin = 15624.9993015099 | epot = -8.42733744825041e-12 | etot = 15624.9993015099
174  ekin = 15624.9993015099 | epot = -8.4273374482504e-12 | etot = 15624.9993015099
175  ekin = 15624.9993015099 | epot = -8.4273374482504e-12 | etot = 15624.9993015099
176  ekin = 15624.9993015099 | epot = -8.4273374482504e-12 | etot = 15624.9993015099
177  ekin = 15624.9993015099 | epot = -8.42733744825039e-12 | etot = 15624.9993015099
178  ekin = 15624.9993015099 | epot = -8.42733744825039e-12 | etot = 15624.9993015099
179  ekin = 15624.9993015099 | epot = -8.42733744825039e-12 | etot = 15624.9993015099
180  ekin = 15624.9993015099 | epot = -8.42733744825039e-12 | etot = 15624.9993015099
181  ekin = 15624.9993015099 | epot = -8.42733744825038e-12 | etot = 15624.9993015099
182  ekin = 15624.9993015099 | epot = -8.42733744825037e-12 | etot = 15624.9993015099
183  ekin = 15624.9993015099 | epot = -8.42733744825037e-12 | etot = 15624.9993015099
184  ekin = 15624.9993015099 | epot = -8.42733744825037e-12 | etot = 15624.9993015099
185  ekin = 15624.9993015099 | epot = -8.42733744825037e-12 | etot = 15624.9993015099
186  ekin = 15624.9993015099 | epot = -8.42733744825036e-12 | etot = 15624.9993015099
187  ekin = 15624.9993015099 | epot = -8.42733744825036e-12 | etot = 15624.9993015099
188  ekin = 15624.9993015099 | epot = -8.42733744825035e-12 | etot = 15624.9993015099
189  ekin = 15624.9993015099 | epot = -8.42733744825035e-12 | etot = 15624.9993015099
190  ekin = 15624.9993015099 | epot = -8.42733744825035e-12 | etot = 15624.9993015099
191  ekin = 15624.9993015099 | epot = -8.42733744825034e-12 | etot = 15624.9993015099
192  ekin = 15624.9993015099 | epot = -8.42733744825034e-12 | etot = 15624.9993015099
193  ekin = 15624.9993015099 | epot = -8.42733744825034e-12 | etot = 15624.9993015099
194  ekin = 15624.9993015099 | epot = -8.42733744825033e-12 | etot = 15624.9993015099
195  ekin = 15624.9993015099 | epot = -8.42733744825033e-12 | etot = 15624.9993015099
196  ekin = 15624.9993015099 | epot = -8.42733744825033e-12 | etot = 15624.9993015099
197  ekin = 15624.9993015099 | epot = -8.42733744825032e-12 | etot = 15624.9993015099
198  ekin = 15624.9993015099 | epot = -8.42733744825032e-12 | etot = 15624.9993015099
199  ekin = 15624.9993015099 | epot = -8.42733744825032e-12 | etot = 15624.9993015099
200  ekin = 15624.9993015099 | epot = -8.42733744825032e-12 | etot = 15624.9993015099
201  ekin = 15624.9993015099 | epot = -8.42733744825031e-12 | etot = 15624.9993015099
202  ekin = 15624.9993015099 | epot = -8.42733744825031e-12 | etot = 15624.9993015099
203  ekin = 15624.9993015099 | epot = -8.4273374482503e-12 | etot = 15624.9993015099
204  ekin = 15624.9993015099 | epot = -8.4273374482503e-12 | etot = 15624.9993015099
205  ekin = 15624.9993015099 | epot = -8.4273374482503e-12 | etot = 15624.9993015099
206  ekin = 15624.9993015099 | epot = -8.42733744825029e-12 | etot = 15624.9993015099
207  ekin = 15624.9993015099 | epot = -8.42733744825029e-12 | etot = 15624.9993015099
208  ekin = 15624.9993015099 | epot = -8.42733744825028e-12 | etot = 15624.9993015099
209  ekin = 15624.9993015099 | epot = -8.42733744825028e-12 | etot = 15624.9993015099
210  ekin = 15624.9993015099 | epot = -8.42733744825028e-12 | etot = 15624.9993015099
211  ekin = 15624.9993015099 | epot = -8.42733744825027e-12 | etot = 15624.9993015099
212  ekin = 15624.9993015099 | epot = -8.42733744825027e-12 | etot = 15624.9993015099
213  ekin = 15624.9993015099 | epot = -8.42733744825027e-12 | etot = 15624.9993015099
214  ekin = 15624.9993015099 | epot = -8.42733744825026e-12 | etot = 15624.9993015099
215  ekin = 15624.9993015099 | epot = -8.42733744825026e-12 | etot = 15624.9993015099
216  ekin = 15624.9993015099 | epot = -8.42733744825025e-12 | etot = 15624.9993015099
217  ekin = 15624.9993015099 | epot = -8.42733744825025e-12 | etot = 15624.9993015099
[...]
Comm    | 0.4934     | 0.52144    | 0.54948    |   3.9 | 19.19
Output  | 0.56376    | 1.0325     | 1.5012     |  46.1 | 37.99
Modify  | 0.29911    | 0.36639    | 0.43366    |  11.1 | 13.48
Other   |            | 0.7012     |            |       | 25.80

Nlocal:              5 ave           5 max           5 min
Histogram: 2 0 0 0 0 0 0 0 0 0
Nghost:             45 ave          45 max          45 min
Histogram: 2 0 0 0 0 0 0 0 0 0
Neighs:              8 ave          10 max           6 min
Histogram: 1 0 0 0 0 0 0 0 0 1

Total # of neighbors = 16
Ave neighs/atom = 1.6
Neighbor list builds = 133
Dangerous builds = 0
System init for write_data ...
Generated 0 of 0 mixed pair_coeff terms from geometric mixing rule
k_count_bonus.h_view(0) = 5
nlocal_bonus = 5
pack_exchange_kokkos() call end
k_count_bonus.h_view(0) = 5
k_count_bonus.h_view(0) = 5
nlocal_bonus = 5
pack_exchange_kokkos() call end
nlocal_bonus = 5
pack_exchange_kokkos() call end
k_count_bonus.h_view(0) = 5
nlocal_bonus = 5
pack_exchange_kokkos() call end
k_count_bonus.h_view(0) = 5
nlocal_bonus = 5
pack_exchange_kokkos() call end
k_count_bonus.h_view(0) = 5
nlocal_bonus = 5
pack_exchange_kokkos() call end
Pb Buf 0: q[0/1/3/4]: 0.577350 0.000000 0.577350 0.577350
Pb Buf 0: q[0/1/3/4]: 0.707107 0.000000 0.707107 0.000000
Pb Buf 1: q[0/1/3/4]: 0.707107 0.000000 0.707107 0.000000
Pb Buf 2: q[0/1/3/4]: 0.000000 0.707107 0.000000 0.707107
pack_border_kokkos() call end
unpack_border_kokkos() call
Pb Buf 1: q[0/1/3/4]: 0.000000 0.000000 1677920065575196256092723858685572984363053612995898604642335770012462302485507620661409129377442197623121362810549431514484782254840225125120475538480841121536597677116082536065229294668804901950150846890103143614936689194294785500594414026752.000000 266612393609520669014348145065529357441713082043927768769401084490983897489038156043892266606414789326163930786877702319146263452770492474854959207181925270339086999888942471881519267840.000000
Pb Buf 2: q[0/1/3/4]: 0.000000 0.000000 0.000000 0.000000
pack_border_kokkos() call end
unpack_border_kokkos() call
UPb hEllipsoid 0: ellip, q[0/1/3/4]: 4 0.577350 0.000000 0.577350 0.577350
UPb dEllipsoid 0: ellip, q[0/1/3/4]: 4 0.577350 0.000000 0.577350 0.577350
unpack_border_kokkos() call end
Pb Buf 0: q[0/1/3/4]: 0.577350 0.000000 0.577350 0.577350
Pb Buf 1: q[0/1/3/4]: 0.577350 0.000000 0.577350 0.577350
Pb Buf 2: q[0/1/3/4]: 0.577350 0.000000 0.577350 0.577350
UPb hEllipsoid 0: ellip, q[0/1/3/4]: 5 0.000000 0.707107 0.000000 0.707107
UPb dEllipsoid 0: ellip, q[0/1/3/4]: 5 0.000000 0.707107 0.000000 0.707107
UPb hEllipsoid 1: ellip, q[0/1/3/4]: 4 0.923785 0.000000 0.382911 0.000000
UPb dEllipsoid 1: ellip, q[0/1/3/4]: 4 0.923785 0.000000 0.382911 0.000000
UPb hEllipsoid 2: ellip, q[0/1/3/4]: 2 0.000000 0.707107 0.000000 0.707107
UPb dEllipsoid 2: ellip, q[0/1/3/4]: 2 0.000000 0.707107 0.000000 0.707107
UPb hEllipsoid 3: ellip, q[0/1/3/4]: 5 0.000000 0.707107 0.000000 0.707107
pack_border_kokkos() call end
unpack_border_kokkos() call
UPb hEllipsoid 0: ellip, q[0/1/3/4]: 4 0.577350 0.000000 0.577350 0.577350
UPb dEllipsoid 0: ellip, q[0/1/3/4]: 4 0.577350 0.000000 0.577350 0.577350
UPb hEllipsoid 1: ellip, q[0/1/3/4]: 0 0.577350 0.000000 0.577350 0.577350
UPb dEllipsoid 1: ellip, q[0/1/3/4]: 0 0.577350 0.000000 0.577350 0.577350
UPb hEllipsoid 2: ellip, q[0/1/3/4]: 4 0.577350 0.000000 0.577350 0.577350
UPb dEllipsoid 2: ellip, q[0/1/3/4]: 4 0.577350 0.000000 0.577350 0.577350
UPb hEllipsoid 3: ellip, q[0/1/3/4]: 4 0.707107 0.000000 0.707107 0.000000
UPb dEllipsoid 3: ellip, q[0/1/3/4]: 4 0.707107 0.000000 0.707107 0.000000
UPb hEllipsoid 4: ellip, q[0/1/3/4]: 4 0.577350 0.000000 0.577350 0.577350
UPb dEllipsoid 4: ellip, q[0/1/3/4]: 4 0.577350 0.000000 0.577350 0.577350
unpack_border_kokkos() call end
Pb Buf 0: q[0/1/3/4]: 0.577350 0.000000 0.577350 0.577350
Pb Buf 1: q[0/1/3/4]: 0.577350 0.000000 0.577350 0.577350
UPb dEllipsoid 3: ellip, q[0/1/3/4]: 5 0.000000 0.707107 0.000000 0.707107
UPb hEllipsoid 4: ellip, q[0/1/3/4]: 4 0.707107 0.000000 0.707107 0.000000
UPb dEllipsoid 4: ellip, q[0/1/3/4]: 4 0.707107 0.000000 0.707107 0.000000
unpack_border_kokkos() call end
Pb Buf 0: q[0/1/3/4]: 0.707107 0.000000 0.707107 0.000000
Pb Buf 1: q[0/1/3/4]: 0.707107 0.000000 0.707107 0.000000
Pb Buf 2: q[0/1/3/4]: 0.577350 0.000000 0.577350 0.577350
pack_border_kokkos() call end
unpack_border_kokkos() call
UPb hEllipsoid 0: ellip, q[0/1/3/4]: 4 0.577350 0.000000 0.577350 0.577350
UPb dEllipsoid 0: ellip, q[0/1/3/4]: 4 0.577350 0.000000 0.577350 0.577350
UPb hEllipsoid 1: ellip, q[0/1/3/4]: 0 0.577350 0.000000 0.577350 0.577350
UPb dEllipsoid 1: ellip, q[0/1/3/4]: 0 0.577350 0.000000 0.577350 0.577350
UPb hEllipsoid 2: ellip, q[0/1/3/4]: 4 0.577350 0.000000 0.577350 0.577350
UPb dEllipsoid 2: ellip, q[0/1/3/4]: 4 0.577350 0.000000 0.577350 0.577350
UPb hEllipsoid 3: ellip, q[0/1/3/4]: 4 0.707107 0.000000 0.707107 0.000000
UPb dEllipsoid 3: ellip, q[0/1/3/4]: 4 0.707107 0.000000 0.707107 0.000000
UPb hEllipsoid 4: ellip, q[0/1/3/4]: 4 0.577350 0.000000 0.577350 0.577350
UPb dEllipsoid 4: ellip, q[0/1/3/4]: 4 0.577350 0.000000 0.577350 0.577350
UPb hEllipsoid 5: ellip, q[0/1/3/4]: 10 0.707107 0.000000 0.707107 0.000000
UPb dEllipsoid 5: ellip, q[0/1/3/4]: 10 0.707107 0.000000 0.707107 0.000000
UPb hEllipsoid 6: ellip, q[0/1/3/4]: 11 0.000000 0.000000 0.000000 0.000000
UPb dEllipsoid 6: ellip, q[0/1/3/4]: 11 0.000000 0.000000 0.000000 0.000000
UPb hEllipsoid 7: ellip, q[0/1/3/4]: 12 0.000000 0.000000 0.000000 0.000000
Pb Buf 2: q[0/1/3/4]: 0.000000 0.707107 0.000000 0.707107
pack_border_kokkos() call end
unpack_border_kokkos() call
unpack_border_kokkos() call end
Pb Buf 0: q[0/1/3/4]: 0.707107 0.000000 0.707107 0.000000
Pb Buf 1: q[0/1/3/4]: 0.707107 0.000000 0.707107 0.000000
Pb Buf 2: q[0/1/3/4]: 0.000000 0.707107 0.000000 0.707107
UPb dEllipsoid 7: ellip, q[0/1/3/4]: 12 0.000000 0.000000 0.000000 0.000000
UPb hEllipsoid 8: ellip, q[0/1/3/4]: 13 0.000000 0.000000 0.000000 0.000000
UPb dEllipsoid 8: ellip, q[0/1/3/4]: 13 0.000000 0.000000 0.000000 0.000000
UPb hEllipsoid 9: ellip, q[0/1/3/4]: 14 0.000000 0.707107 0.000000 0.707107
UPb dEllipsoid 9: ellip, q[0/1/3/4]: 14 0.000000 0.707107 0.000000 0.707107
UPb hEllipsoid 10: ellip, q[0/1/3/4]: 15 0.577350 0.000000 0.577350 0.577350
UPb dEllipsoid 10: ellip, q[0/1/3/4]: 15 0.577350 0.000000 0.577350 0.577350
unpack_border_kokkos() call end
Pb Buf 0: q[0/1/3/4]: 0.577350 0.000000 0.577350 0.577350
Pb Buf 1: q[0/1/3/4]: 0.577350 0.000000 0.577350 0.577350
Pb Buf 2: q[0/1/3/4]: 0.577350 0.000000 0.577350 0.577350
pack_border_kokkos() call end
unpack_border_kokkos() call
UPb hEllipsoid 0: ellip, q[0/1/3/4]: 4 0.577350 0.000000 0.577350 0.577350
UPb dEllipsoid 0: ellip, q[0/1/3/4]: 4 0.577350 0.000000 0.577350 0.577350
UPb hEllipsoid 1: ellip, q[0/1/3/4]: 0 0.577350 0.000000 0.577350 0.577350
pack_border_kokkos() call end
unpack_border_kokkos() call
UPb hEllipsoid 0: ellip, q[0/1/3/4]: 5 0.000000 0.707107 0.000000 0.707107
UPb dEllipsoid 0: ellip, q[0/1/3/4]: 5 0.000000 0.707107 0.000000 0.707107
UPb hEllipsoid 1: ellip, q[0/1/3/4]: 4 0.923785 0.000000 0.382911 0.000000
UPb dEllipsoid 1: ellip, q[0/1/3/4]: 4 0.923785 0.000000 0.382911 0.000000
UPb hEllipsoid 2: ellip, q[0/1/3/4]: 2 0.000000 0.707107 0.000000 0.707107
UPb dEllipsoid 1: ellip, q[0/1/3/4]: 0 0.577350 0.000000 0.577350 0.577350
UPb hEllipsoid 2: ellip, q[0/1/3/4]: 4 0.577350 0.000000 0.577350 0.577350
UPb dEllipsoid 2: ellip, q[0/1/3/4]: 4 0.577350 0.000000 0.577350 0.577350
UPb hEllipsoid 3: ellip, q[0/1/3/4]: 4 0.707107 0.000000 0.707107 0.000000
UPb dEllipsoid 3: ellip, q[0/1/3/4]: 4 0.707107 0.000000 0.707107 0.000000
UPb hEllipsoid 4: ellip, q[0/1/3/4]: 4 0.577350 0.000000 0.577350 0.577350
UPb dEllipsoid 4: ellip, q[0/1/3/4]: 4 0.577350 0.000000 0.577350 0.577350
UPb hEllipsoid 5: ellip, q[0/1/3/4]: 10 0.707107 0.000000 0.707107 0.000000
UPb dEllipsoid 5: ellip, q[0/1/3/4]: 10 0.707107 0.000000 0.707107 0.000000
UPb hEllipsoid 6: ellip, q[0/1/3/4]: 11 0.000000 0.000000 0.000000 0.000000
UPb dEllipsoid 6: ellip, q[0/1/3/4]: 11 0.000000 0.000000 0.000000 0.000000
UPb hEllipsoid 7: ellip, q[0/1/3/4]: 12 0.000000 0.000000 0.000000 0.000000
UPb dEllipsoid 7: ellip, q[0/1/3/4]: 12 0.000000 0.000000 0.000000 0.000000
unpack_border_kokkos() call end
UPb dEllipsoid 2: ellip, q[0/1/3/4]: 2 0.000000 0.707107 0.000000 0.707107
UPb hEllipsoid 3: ellip, q[0/1/3/4]: 5 0.000000 0.707107 0.000000 0.707107
UPb dEllipsoid 3: ellip, q[0/1/3/4]: 5 0.000000 0.707107 0.000000 0.707107
UPb hEllipsoid 4: ellip, q[0/1/3/4]: 4 0.707107 0.000000 0.707107 0.000000
UPb dEllipsoid 4: ellip, q[0/1/3/4]: 4 0.707107 0.000000 0.707107 0.000000
UPb hEllipsoid 5: ellip, q[0/1/3/4]: 10 0.707107 0.000000 0.707107 0.000000
UPb dEllipsoid 5: ellip, q[0/1/3/4]: 10 0.707107 0.000000 0.707107 0.000000
Pb Buf 0: q[0/1/3/4]: 0.577350 0.000000 0.577350 0.577350
Pb Buf 1: q[0/1/3/4]: 0.577350 0.000000 0.577350 0.577350
Pb Buf 2: q[0/1/3/4]: 0.577350 0.000000 0.577350 0.577350
pack_border_kokkos() call end
UPb hEllipsoid 6: ellip, q[0/1/3/4]: 11 0.000000 0.000000 0.000000 0.000000
UPb dEllipsoid 6: ellip, q[0/1/3/4]: 11 0.000000 0.000000 0.000000 0.000000
UPb hEllipsoid 7: ellip, q[0/1/3/4]: 12 0.000000 0.000000 0.000000 0.000000
UPb dEllipsoid 7: ellip, q[0/1/3/4]: 12 0.000000 0.000000 0.000000 0.000000
UPb hEllipsoid 8: ellip, q[0/1/3/4]: 13 0.000000 0.000000 0.000000 0.000000
UPb dEllipsoid 8: ellip, q[0/1/3/4]: 13 0.000000 0.000000 0.000000 0.000000
UPb hEllipsoid 9: ellip, q[0/1/3/4]: 14 0.577350 0.000000 0.577350 0.577350
UPb dEllipsoid 9: ellip, q[0/1/3/4]: 14 0.577350 0.000000 0.577350 0.577350
unpack_border_kokkos() call end
Pb Buf 0: q[0/1/3/4]: 0.707107 0.000000 0.707107 0.000000
Pb Buf 1: q[0/1/3/4]: 0.707107 0.000000 0.707107 0.000000
Pb Buf 2: q[0/1/3/4]: 0.000000 0.707107 0.000000 0.707107
pack_border_kokkos() call end
unpack_border_kokkos() call
unpack_border_kokkos() call end
Pb Buf 0: q[0/1/3/4]: 0.707107 0.000000 0.707107 0.000000
Pb Buf 1: q[0/1/3/4]: 0.000000 0.707107 0.000000 0.707107
Pb Buf 2: q[0/1/3/4]: 0.707107 0.000000 0.707107 0.000000
pack_border_kokkos() call end
unpack_border_kokkos() call
UPb hEllipsoid 0: ellip, q[0/1/3/4]: 5 0.000000 0.707107 0.000000 0.707107
unpack_border_kokkos() call
UPb hEllipsoid 0: ellip, q[0/1/3/4]: 4 0.577350 0.000000 0.577350 0.577350
UPb dEllipsoid 0: ellip, q[0/1/3/4]: 4 0.577350 0.000000 0.577350 0.577350
UPb hEllipsoid 1: ellip, q[0/1/3/4]: 0 0.577350 0.000000 0.577350 0.577350
UPb dEllipsoid 1: ellip, q[0/1/3/4]: 0 0.577350 0.000000 0.577350 0.577350
UPb hEllipsoid 2: ellip, q[0/1/3/4]: 4 0.577350 0.000000 0.577350 0.577350
UPb dEllipsoid 2: ellip, q[0/1/3/4]: 4 0.577350 0.000000 0.577350 0.577350
UPb hEllipsoid 3: ellip, q[0/1/3/4]: 4 0.707107 0.000000 0.707107 0.000000
UPb dEllipsoid 3: ellip, q[0/1/3/4]: 4 0.707107 0.000000 0.707107 0.000000
UPb hEllipsoid 4: ellip, q[0/1/3/4]: 4 0.577350 0.000000 0.577350 0.577350
UPb dEllipsoid 4: ellip, q[0/1/3/4]: 4 0.577350 0.000000 0.577350 0.577350
UPb hEllipsoid 5: ellip, q[0/1/3/4]: 10 0.707107 0.000000 0.707107 0.000000
UPb dEllipsoid 0: ellip, q[0/1/3/4]: 5 0.000000 0.707107 0.000000 0.707107
UPb hEllipsoid 1: ellip, q[0/1/3/4]: 4 0.923785 0.000000 0.382911 0.000000
UPb dEllipsoid 1: ellip, q[0/1/3/4]: 4 0.923785 0.000000 0.382911 0.000000
UPb hEllipsoid 2: ellip, q[0/1/3/4]: 2 0.000000 0.707107 0.000000 0.707107
UPb dEllipsoid 2: ellip, q[0/1/3/4]: 2 0.000000 0.707107 0.000000 0.707107
UPb hEllipsoid 3: ellip, q[0/1/3/4]: 5 0.000000 0.707107 0.000000 0.707107
UPb dEllipsoid 3: ellip, q[0/1/3/4]: 5 0.000000 0.707107 0.000000 0.707107
UPb hEllipsoid 4: ellip, q[0/1/3/4]: 4 0.707107 0.000000 0.707107 0.000000
UPb dEllipsoid 5: ellip, q[0/1/3/4]: 10 0.707107 0.000000 0.707107 0.000000
UPb hEllipsoid 6: ellip, q[0/1/3/4]: 11 0.000000 0.000000 0.000000 0.000000
UPb dEllipsoid 6: ellip, q[0/1/3/4]: 11 0.000000 0.000000 0.000000 0.000000
UPb hEllipsoid 7: ellip, q[0/1/3/4]: 12 0.000000 0.000000 0.000000 0.000000
UPb dEllipsoid 7: ellip, q[0/1/3/4]: 12 0.000000 0.000000 0.000000 0.000000
UPb hEllipsoid 8: ellip, q[0/1/3/4]: 13 0.000000 0.000000 0.000000 0.000000
UPb dEllipsoid 8: ellip, q[0/1/3/4]: 13 0.000000 0.000000 0.000000 0.000000
UPb hEllipsoid 9: ellip, q[0/1/3/4]: 14 0.000000 0.707107 0.000000 0.707107
UPb dEllipsoid 9: ellip, q[0/1/3/4]: 14 0.000000 0.707107 0.000000 0.707107
UPb hEllipsoid 10: ellip, q[0/1/3/4]: 15 0.577350 0.000000 0.577350 0.577350
UPb dEllipsoid 10: ellip, q[0/1/3/4]: 15 0.577350 0.000000 0.577350 0.577350
UPb hEllipsoid 11: ellip, q[0/1/3/4]: 16 0.577350 0.000000 0.577350 0.577350
UPb dEllipsoid 11: ellip, q[0/1/3/4]: 16 0.577350 0.000000 0.577350 0.577350
unpack_border_kokkos() call end
Pb Buf 0: q[0/1/3/4]: 0.577350 0.000000 0.577350 0.577350
Pb Buf 1: q[0/1/3/4]: 0.577350 0.000000 0.577350 0.577350
Pb Buf 2: q[0/1/3/4]: 0.577350 0.000000 0.577350 0.577350
pack_border_kokkos() call end
UPb dEllipsoid 4: ellip, q[0/1/3/4]: 4 0.707107 0.000000 0.707107 0.000000
UPb hEllipsoid 5: ellip, q[0/1/3/4]: 10 0.707107 0.000000 0.707107 0.000000
UPb dEllipsoid 5: ellip, q[0/1/3/4]: 10 0.707107 0.000000 0.707107 0.000000
UPb hEllipsoid 6: ellip, q[0/1/3/4]: 11 0.000000 0.000000 0.000000 0.000000
UPb dEllipsoid 6: ellip, q[0/1/3/4]: 11 0.000000 0.000000 0.000000 0.000000
UPb hEllipsoid 7: ellip, q[0/1/3/4]: 12 0.000000 0.000000 0.000000 0.000000
UPb dEllipsoid 7: ellip, q[0/1/3/4]: 12 0.000000 0.000000 0.000000 0.000000
UPb hEllipsoid 8: ellip, q[0/1/3/4]: 13 0.000000 0.000000 0.000000 0.000000
UPb dEllipsoid 8: ellip, q[0/1/3/4]: 13 0.000000 0.000000 0.000000 0.000000
UPb hEllipsoid 9: ellip, q[0/1/3/4]: 14 0.577350 0.000000 0.577350 0.577350
UPb dEllipsoid 9: ellip, q[0/1/3/4]: 14 0.577350 0.000000 0.577350 0.577350
UPb hEllipsoid 10: ellip, q[0/1/3/4]: 15 0.707107 0.000000 0.707107 0.000000
UPb dEllipsoid 10: ellip, q[0/1/3/4]: 15 0.707107 0.000000 0.707107 0.000000
UPb hEllipsoid 11: ellip, q[0/1/3/4]: 16 0.707107 0.000000 0.707107 0.000000
UPb dEllipsoid 11: ellip, q[0/1/3/4]: 16 0.707107 0.000000 0.707107 0.000000
UPb hEllipsoid 12: ellip, q[0/1/3/4]: 17 0.000000 0.707107 0.000000 0.707107
UPb dEllipsoid 12: ellip, q[0/1/3/4]: 17 0.000000 0.707107 0.000000 0.707107
UPb hEllipsoid 13: ellip, q[0/1/3/4]: 18 0.707107 0.000000 0.707107 0.000000
UPb dEllipsoid 13: ellip, q[0/1/3/4]: 18 0.707107 0.000000 0.707107 0.000000
UPb hEllipsoid 14: ellip, q[0/1/3/4]: 19 0.707107 0.000000 0.707107 0.000000
UPb dEllipsoid 14: ellip, q[0/1/3/4]: 19 0.707107 0.000000 0.707107 0.000000
UPb hEllipsoid 15: ellip, q[0/1/3/4]: 20 0.707107 0.000000 0.707107 0.000000
UPb dEllipsoid 15: ellip, q[0/1/3/4]: 20 0.707107 0.000000 0.707107 0.000000
UPb hEllipsoid 16: ellip, q[0/1/3/4]: 21 0.707107 0.000000 0.707107 0.000000
UPb dEllipsoid 16: ellip, q[0/1/3/4]: 21 0.707107 0.000000 0.707107 0.000000
UPb hEllipsoid 17: ellip, q[0/1/3/4]: 22 0.000000 0.707107 0.000000 0.707107
UPb dEllipsoid 17: ellip, q[0/1/3/4]: 22 0.000000 0.707107 0.000000 0.707107
unpack_border_kokkos() call end
Pb Buf 0: q[0/1/3/4]: 0.707107 0.000000 0.707107 0.000000
Pb Buf 1: q[0/1/3/4]: 0.707107 0.000000 0.707107 0.000000
Pb Buf 2: q[0/1/3/4]: 0.707107 0.000000 0.707107 0.000000
pack_border_kokkos() call end
unpack_border_kokkos() call
UPb hEllipsoid 0: ellip, q[0/1/3/4]: 5 0.000000 0.707107 0.000000 0.707107
UPb dEllipsoid 0: ellip, q[0/1/3/4]: 5 0.000000 0.707107 0.000000 0.707107
unpack_border_kokkos() call
UPb hEllipsoid 0: ellip, q[0/1/3/4]: 4 0.577350 0.000000 0.577350 0.577350
UPb dEllipsoid 0: ellip, q[0/1/3/4]: 4 0.577350 0.000000 0.577350 0.577350
UPb hEllipsoid 1: ellip, q[0/1/3/4]: 0 0.577350 0.000000 0.577350 0.577350
UPb dEllipsoid 1: ellip, q[0/1/3/4]: 0 0.577350 0.000000 0.577350 0.577350
UPb hEllipsoid 2: ellip, q[0/1/3/4]: 4 0.577350 0.000000 0.577350 0.577350
UPb dEllipsoid 2: ellip, q[0/1/3/4]: 4 0.577350 0.000000 0.577350 0.577350
UPb hEllipsoid 3: ellip, q[0/1/3/4]: 4 0.707107 0.000000 0.707107 0.000000
UPb dEllipsoid 3: ellip, q[0/1/3/4]: 4 0.707107 0.000000 0.707107 0.000000
UPb hEllipsoid 4: ellip, q[0/1/3/4]: 4 0.577350 0.000000 0.577350 0.577350
UPb dEllipsoid 4: ellip, q[0/1/3/4]: 4 0.577350 0.000000 0.577350 0.577350
UPb hEllipsoid 5: ellip, q[0/1/3/4]: 10 0.707107 0.000000 0.707107 0.000000
UPb dEllipsoid 5: ellip, q[0/1/3/4]: 10 0.707107 0.000000 0.707107 0.000000
UPb hEllipsoid 6: ellip, q[0/1/3/4]: 11 0.000000 0.000000 0.000000 0.000000
UPb dEllipsoid 6: ellip, q[0/1/3/4]: 11 0.000000 0.000000 0.000000 0.000000
UPb hEllipsoid 7: ellip, q[0/1/3/4]: 12 0.000000 0.000000 0.000000 0.000000
UPb dEllipsoid 7: ellip, q[0/1/3/4]: 12 0.000000 0.000000 0.000000 0.000000
UPb hEllipsoid 1: ellip, q[0/1/3/4]: 4 0.923785 0.000000 0.382911 0.000000
UPb dEllipsoid 1: ellip, q[0/1/3/4]: 4 0.923785 0.000000 0.382911 0.000000
UPb hEllipsoid 2: ellip, q[0/1/3/4]: 2 0.000000 0.707107 0.000000 0.707107
UPb dEllipsoid 2: ellip, q[0/1/3/4]: 2 0.000000 0.707107 0.000000 0.707107
UPb hEllipsoid 3: ellip, q[0/1/3/4]: 5 0.000000 0.707107 0.000000 0.707107
UPb dEllipsoid 3: ellip, q[0/1/3/4]: 5 0.000000 0.707107 0.000000 0.707107
UPb hEllipsoid 8: ellip, q[0/1/3/4]: 13 0.000000 0.000000 0.000000 0.000000
UPb dEllipsoid 8: ellip, q[0/1/3/4]: 13 0.000000 0.000000 0.000000 0.000000
UPb hEllipsoid 9: ellip, q[0/1/3/4]: 14 0.000000 0.707107 0.000000 0.707107
UPb dEllipsoid 9: ellip, q[0/1/3/4]: 14 0.000000 0.707107 0.000000 0.707107
UPb hEllipsoid 10: ellip, q[0/1/3/4]: 15 0.577350 0.000000 0.577350 0.577350
UPb dEllipsoid 10: ellip, q[0/1/3/4]: 15 0.577350 0.000000 0.577350 0.577350
UPb hEllipsoid 11: ellip, q[0/1/3/4]: 16 0.577350 0.000000 0.577350 0.577350
UPb dEllipsoid 11: ellip, q[0/1/3/4]: 16 0.577350 0.000000 0.577350 0.577350
unpack_border_kokkos() call end
UPb hEllipsoid 4: ellip, q[0/1/3/4]: 4 0.707107 0.000000 0.707107 0.000000
UPb dEllipsoid 4: ellip, q[0/1/3/4]: 4 0.707107 0.000000 0.707107 0.000000
UPb hEllipsoid 5: ellip, q[0/1/3/4]: 10 0.707107 0.000000 0.707107 0.000000
UPb dEllipsoid 5: ellip, q[0/1/3/4]: 10 0.707107 0.000000 0.707107 0.000000
UPb hEllipsoid 6: ellip, q[0/1/3/4]: 11 0.000000 0.000000 0.000000 0.000000
UPb dEllipsoid 6: ellip, q[0/1/3/4]: 11 0.000000 0.000000 0.000000 0.000000
UPb hEllipsoid 7: ellip, q[0/1/3/4]: 12 0.000000 0.000000 0.000000 0.000000
UPb dEllipsoid 7: ellip, q[0/1/3/4]: 12 0.000000 0.000000 0.000000 0.000000
UPb hEllipsoid 8: ellip, q[0/1/3/4]: 13 0.000000 0.000000 0.000000 0.000000
UPb dEllipsoid 8: ellip, q[0/1/3/4]: 13 0.000000 0.000000 0.000000 0.000000
UPb hEllipsoid 9: ellip, q[0/1/3/4]: 14 0.577350 0.000000 0.577350 0.577350
UPb dEllipsoid 9: ellip, q[0/1/3/4]: 14 0.577350 0.000000 0.577350 0.577350
UPb hEllipsoid 10: ellip, q[0/1/3/4]: 15 0.707107 0.000000 0.707107 0.000000
UPb dEllipsoid 10: ellip, q[0/1/3/4]: 15 0.707107 0.000000 0.707107 0.000000
UPb hEllipsoid 11: ellip, q[0/1/3/4]: 16 0.707107 0.000000 0.707107 0.000000
UPb dEllipsoid 11: ellip, q[0/1/3/4]: 16 0.707107 0.000000 0.707107 0.000000
UPb hEllipsoid 12: ellip, q[0/1/3/4]: 17 0.000000 0.707107 0.000000 0.707107
UPb dEllipsoid 12: ellip, q[0/1/3/4]: 17 0.000000 0.707107 0.000000 0.707107
UPb hEllipsoid 13: ellip, q[0/1/3/4]: 18 0.707107 0.000000 0.707107 0.000000
UPb dEllipsoid 13: ellip, q[0/1/3/4]: 18 0.707107 0.000000 0.707107 0.000000
UPb hEllipsoid 14: ellip, q[0/1/3/4]: 19 0.707107 0.000000 0.707107 0.000000
UPb dEllipsoid 14: ellip, q[0/1/3/4]: 19 0.707107 0.000000 0.707107 0.000000
UPb hEllipsoid 15: ellip, q[0/1/3/4]: 20 0.707107 0.000000 0.707107 0.000000
UPb dEllipsoid 15: ellip, q[0/1/3/4]: 20 0.707107 0.000000 0.707107 0.000000
UPb hEllipsoid 16: ellip, q[0/1/3/4]: 21 0.707107 0.000000 0.707107 0.000000
UPb dEllipsoid 16: ellip, q[0/1/3/4]: 21 0.707107 0.000000 0.707107 0.000000
UPb hEllipsoid 17: ellip, q[0/1/3/4]: 22 0.000000 0.707107 0.000000 0.707107
UPb dEllipsoid 17: ellip, q[0/1/3/4]: 22 0.000000 0.707107 0.000000 0.707107
unpack_border_kokkos() call end
Total wall time: 0:00:02
