LAMMPS data file via write_data, version 2 Aug 2023, timestep = 20000, units = lj

125 atoms
1 atom types
125 ellipsoids

0 5.503212081491045 xlo xhi
0 5.503212081491045 ylo yhi
0 5.503212081491045 zlo zhi

Atoms # ellipsoid/kk

2 1 1 0.6366197723675814 1.272402817425323 0.18544444592456083 0.39064328776618007 0 0 0
8 1 1 0.6366197723675814 2.3398915093067356 0.5123108732171452 0.49257401957453884 0 0 0
5 1 1 0.6366197723675814 4.80852568404397 0.32982222326152544 0.1657339735539895 0 0 0
7 1 1 0.6366197723675814 0.9927973319764717 1.5404074006293433 0.1821545685773535 0 0 0
31 1 1 0.6366197723675814 5.186422325053737 1.3969911936374033 0.49306687192366244 -1 0 0
13 1 1 0.6366197723675814 2.1382091915268098 1.6632659920356478 0.39053335575115494 0 0 0
39 1 1 0.6366197723675814 3.22212314377912 1.956270204845755 0.6155223468865422 0 0 0
12 1 1 0.6366197723675814 1.1686430505137457 2.6287298474016865 0.35725250406294423 0 0 0
15 1 1 0.6366197723675814 4.315931974345286 2.550120980013699 0.11521091554358272 0 0 0
11 1 1 0.6366197723675814 5.446803599828855 2.9333359526710705 0.3148950183247553 -1 0 0
43 1 1 0.6366197723675814 2.333917549158401 3.704254541975276 0.572968693310356 0 0 0
19 1 1 0.6366197723675814 3.318260281322321 3.266460008203648 5.481738181943135 0 0 -1
20 1 1 0.6366197723675814 4.394908747349396 3.6583533342533423 0.16086413359824428 0 0 0
22 1 1 0.6366197723675814 1.4113327914651794 4.455896659067791 0.25704078221644383 0 0 0
49 1 1 0.6366197723675814 3.2417447109047215 4.440486949175568 0.738173109664278 0 0 0
21 1 1 0.6366197723675814 0.19548782058694114 5.093180425862084 0.2943397911905717 0 0 0
3 1 1 0.6366197723675814 2.363438907052157 4.989850931054899 0.04338766589160266 0 -1 0
4 1 1 0.6366197723675814 3.3714364174677356 5.465360646340448 0.040403348488540713 0 -1 0
25 1 1 0.6366197723675814 4.251522792196007 4.802511693609798 0.3325416577083641 0 0 0
26 1 1 0.6366197723675814 0.41165474122264817 0.6170834524913958 0.9969277972726834 0 0 0
32 1 1 0.6366197723675814 1.4984762045642652 1.070404751041548 1.037777360979279 0 0 0
33 1 1 0.6366197723675814 2.5353155709668176 1.0626385223382055 1.4949040609915538 0 0 0
34 1 1 0.6366197723675814 3.3300130979915425 0.7970916506834701 0.8287211541226759 0 0 0
35 1 1 0.6366197723675814 4.31714778960372 1.1333676286731391 1.1095999970613357 0 0 0
36 1 1 0.6366197723675814 0.38373587942816145 2.2449429628873916 1.0996902576889838 0 0 0
37 1 1 0.6366197723675814 1.5537907980362322 2.1581016322199646 1.4583377164100555 0 0 0
40 1 1 0.6366197723675814 4.234146270271586 2.1919354332334855 1.1606456348426024 0 0 0
38 1 1 0.6366197723675814 2.4525218025858804 2.7042386899629935 1.0668437819650294 0 0 0
41 1 1 0.6366197723675814 0.11801833120283849 3.381158187709493 1.3895195908994655 0 0 0
42 1 1 0.6366197723675814 1.1124541922560685 3.6028626398908496 0.9131494891471629 0 0 0
44 1 1 0.6366197723675814 3.41610741652168 3.3145194608219453 1.159662292379225 0 0 0
45 1 1 0.6366197723675814 4.5279633924243825 3.279678904161623 1.2388624847442222 0 0 0
48 1 1 0.6366197723675814 1.7486235679556759 4.5154595499641 1.2954956315638169 0 0 0
46 1 1 0.6366197723675814 5.10404685610212 4.314582375390432 0.9784678862339694 -1 0 0
47 1 1 0.6366197723675814 0.6637803178143155 4.905585799903242 1.2540614466777855 0 0 0
28 1 1 0.6366197723675814 2.595404687767607 5.418523645328762 1.3273134044196127 0 -1 0
29 1 1 0.6366197723675814 3.9801857145749038 5.44137663378375 1.2306175170644125 0 -1 0
30 1 1 0.6366197723675814 5.068719414417078 5.387056323658745 1.1957272401043668 0 -1 0
51 1 1 0.6366197723675814 0.19460250091085385 0.36390873543589397 2.1498792339034454 0 0 0
27 1 1 0.6366197723675814 1.5146041488591602 0.0891390694995335 1.6369942713407137 0 0 0
60 1 1 0.6366197723675814 4.644052885110414 0.7201962168959906 2.1342541356395013 0 0 0
57 1 1 0.6366197723675814 1.1301886299598984 0.9179284524684247 2.241225869180379 0 0 0
59 1 1 0.6366197723675814 3.584898880487366 0.7592814865638026 1.913298424959968 0 0 0
56 1 1 0.6366197723675814 5.380291032376233 1.3710829969991025 1.6302042337100124 -1 0 0
62 1 1 0.6366197723675814 0.6983368167158736 1.9458906754724643 2.162909036670732 0 0 0
64 1 1 0.6366197723675814 3.0922796143842604 2.012703746942883 1.7537745074775772 0 0 0
65 1 1 0.6366197723675814 4.093360916705803 1.772224364851154 2.2550607398502365 0 0 0
67 1 1 0.6366197723675814 1.013889946173373 3.0022898691410957 1.931942172898631 0 0 0
69 1 1 0.6366197723675814 2.9077689598598755 3.136853454484015 2.191722834429636 0 0 0
70 1 1 0.6366197723675814 3.982308454596393 3.0078064512724545 2.2457385635228477 0 0 0
61 1 1 0.6366197723675814 4.996750074264905 2.438573634623016 1.954180990950009 -1 0 0
68 1 1 0.6366197723675814 2.010906315587784 3.4897342233499313 1.7292021045373251 0 0 0
72 1 1 0.6366197723675814 0.9794438481359499 4.118818443463322 2.01986804185418 0 0 0
74 1 1 0.6366197723675814 3.1545075935457194 4.19852441361932 1.8646991879682313 0 0 0
50 1 1 0.6366197723675814 4.270065447390141 4.299905037556314 1.6992686708248812 0 0 0
71 1 1 0.6366197723675814 5.42762665517598 4.604763987980883 2.064537140504738 -1 0 0
73 1 1 0.6366197723675814 2.220590868324956 4.7685813055638695 2.266954610564012 0 0 0
53 1 1 0.6366197723675814 1.9689166346838436 0.22599885656260285 2.8347242825950647 0 0 0
85 1 1 0.6366197723675814 3.865664209980461 0.7111642683299442 2.902885479609392 0 0 0
58 1 1 0.6366197723675814 2.1109893465066527 1.4667954758711526 2.4754560277878066 0 0 0
89 1 1 0.6366197723675814 3.2075343766970916 2.044777938828529 2.8646600965795534 0 0 0
81 1 1 0.6366197723675814 5.178962825710699 1.6304781665979808 2.7431176958125687 -1 0 0
86 1 1 0.6366197723675814 0.2840579933700696 2.6643187869154343 2.9725837184981714 0 0 0
63 1 1 0.6366197723675814 2.0141373188749663 2.5541236394718934 2.4444092848139807 0 0 0
91 1 1 0.6366197723675814 0.6830042427069084 3.804675284843216 3.09621546076429 0 0 0
92 1 1 0.6366197723675814 1.7671545527404948 3.8641460551393805 2.739959071735157 0 0 0
66 1 1 0.6366197723675814 5.165884569443436 3.550061102088529 2.4211874839817327 -1 0 0
99 1 1 0.6366197723675814 3.1343994048621617 4.120226961003499 2.9498813004398516 0 0 0
75 1 1 0.6366197723675814 4.2382560955808355 4.012632493334582 2.7695964743409873 0 0 0
52 1 1 0.6366197723675814 1.1260231552618247 5.016093440601497 2.5615826816623066 0 -1 0
54 1 1 0.6366197723675814 3.2968429005567548 5.331669079807953 2.388733955229415 0 -1 0
55 1 1 0.6366197723675814 4.499090293531799 5.099389942514596 2.5210066232253925 0 -1 0
77 1 1 0.6366197723675814 0.7952869931109688 0.3278824925331262 3.200541068890766 0 0 0
83 1 1 0.6366197723675814 1.6831790555703725 1.041150056029948 3.6230325717088796 0 0 0
84 1 1 0.6366197723675814 2.8038298939644224 0.9275924416588575 3.1525738752876884 0 0 0
76 1 1 0.6366197723675814 5.303101784294336 0.762890601679767 3.5414275798330483 -1 0 0
82 1 1 0.6366197723675814 0.81773281959761 1.6060416539544677 3.238829535955458 0 0 0
88 1 1 0.6366197723675814 2.1714736200207865 2.194320358309196 3.517508806076301 0 0 0
90 1 1 0.6366197723675814 4.163887235089293 1.6599582393758512 3.5196743095569034 0 0 0
111 1 1 0.6366197723675814 5.458997058566976 1.92549264732471 3.8411612159854016 -1 0 0
87 1 1 0.6366197723675814 1.2520362447077669 2.8689224178195496 3.2366313289154554 0 0 0
95 1 1 0.6366197723675814 4.675227481726879 2.60279890634024 3.157789051336648 0 0 0
122 1 1 0.6366197723675814 1.514110410801852 3.830622471877905 3.829340637742728 0 0 0
93 1 1 0.6366197723675814 2.4815396721065177 3.283580325379593 3.337567434396299 0 0 0
94 1 1 0.6366197723675814 3.814908187302846 3.2289778373011986 3.4916839170691802 0 0 0
100 1 1 0.6366197723675814 4.969345675590935 3.7108028911756903 3.552254197648491 0 0 0
98 1 1 0.6366197723675814 2.252789717511783 4.685654326700787 3.443931601952068 0 0 0
124 1 1 0.6366197723675814 4.032973996962476 4.373466984722044 3.8866089119296863 0 0 0
97 1 1 0.6366197723675814 0.8694332846124371 4.735519904401187 3.6273913524337402 0 0 0
78 1 1 0.6366197723675814 1.6128980863004396 0.013902502172967957 3.8821485634861475 0 0 0
79 1 1 0.6366197723675814 3.180444051013746 5.300003647535215 3.508812962439745 0 -1 0
80 1 1 0.6366197723675814 4.555812184450574 5.42358892496353 3.586200881988257 0 -1 0
96 1 1 0.6366197723675814 5.293862705101242 4.720310976341366 3.1846540908708594 -1 0 0
109 1 1 0.6366197723675814 3.7895851927627273 0.7684647403962067 4.341261936842788 0 0 0
101 1 1 0.6366197723675814 5.198392409195846 0.0518999637639161 4.533656635130134 -1 0 0
106 1 1 0.6366197723675814 0.7149766707009894 1.1241551852888096 4.313269568579487 0 0 0
108 1 1 0.6366197723675814 2.6398345614788576 0.8679466672558288 4.287294387621064 0 0 0
110 1 1 0.6366197723675814 5.024502599774756 1.1820501654641942 4.59781084428454 0 0 0
113 1 1 0.6366197723675814 1.7695166013940824 1.6529443502337975 4.650989447266483 0 0 0
114 1 1 0.6366197723675814 3.1651262866109775 1.9031956928805869 3.917655996258357 0 0 0
117 1 1 0.6366197723675814 0.39882689512220154 3.003159164060075 4.101307329385959 0 0 0
118 1 1 0.6366197723675814 1.6533197140983278 2.7243812014141158 4.327589940042354 0 0 0
119 1 1 0.6366197723675814 2.982614573010497 2.9197657715992134 4.308634699279187 0 0 0
115 1 1 0.6366197723675814 4.387266061507219 2.5583570627278913 4.249602469622734 0 0 0
120 1 1 0.6366197723675814 4.000168399214074 3.4794168612574667 4.531026033026082 0 0 0
121 1 1 0.6366197723675814 0.25431977795052313 4.198173039768669 4.354923176865254 0 0 0
103 1 1 0.6366197723675814 1.7211510204559972 4.552196604406594 4.686535435284114 0 -1 0
123 1 1 0.6366197723675814 2.9311970412258224 4.068686466265295 4.054413656435018 0 0 0
102 1 1 0.6366197723675814 0.8065715529572804 5.381787105510694 4.614018926712293 0 -1 0
104 1 1 0.6366197723675814 2.5631876499213946 5.237768174061795 4.41784975863375 0 -1 0
1 1 1 0.6366197723675814 0.27910266088599467 0.7516303646032777 5.342366202858357 0 0 -1
107 1 1 0.6366197723675814 1.7803505561634612 0.4454112976459807 4.906567129817412 0 0 0
9 1 1 0.6366197723675814 3.0329108246757466 1.119001798401147 5.242838974827077 0 0 -1
10 1 1 0.6366197723675814 4.078995571365237 1.1560728987753317 5.479327799548713 0 0 -1
112 1 1 0.6366197723675814 0.7798652012917792 2.273753912008857 4.860125918584596 0 0 0
14 1 1 0.6366197723675814 3.436014774473161 2.1368679374829718 4.945491846820741 0 0 -1
6 1 1 0.6366197723675814 5.166310116807122 2.109100505592968 5.074841640910348 -1 0 -1
18 1 1 0.6366197723675814 2.4446460779111336 2.62947627002952 5.433484013968348 0 0 -1
17 1 1 0.6366197723675814 1.1532370142754942 3.554978164700199 4.851131031409667 0 0 -1
23 1 1 0.6366197723675814 2.252221050031056 3.588178352174795 4.8427923545131675 0 0 -1
116 1 1 0.6366197723675814 5.102837057117802 3.250707260935331 4.833589749728224 -1 0 0
16 1 1 0.6366197723675814 0.29840564536966335 3.937901686486136 5.452000545988149 0 0 -1
24 1 1 0.6366197723675814 3.243585234052166 4.498727133381461 4.987467148765628 0 0 -1
125 1 1 0.6366197723675814 4.66901829349287 4.337047016718081 4.793615733487453 0 0 0
105 1 1 0.6366197723675814 4.121347771647191 5.290469187119985 4.795609364546073 0 -1 0

Velocities

2 0.7895120268569689 0.03236898936675185 0.4796291092854811 0 0 0
8 -0.10666185312696556 -0.9693119795143981 -0.35961968101374703 0 0 0
5 -1.2769566023078287 -1.1259968691347442 0.03315450091176303 0 0 0
7 -0.022133431635519805 0.04454653814182843 1.0290182951260782 0 0 0
31 -1.7428144624406476 -0.1943720535571676 -0.9310981738202639 0 0 0
13 0.5052541354145108 -0.06228837287551219 0.13171876342620997 0 0 0
39 0.4987342733386886 -0.872667914473308 -0.419220162880805 0 0 0
12 -0.265588680969175 0.2804152263425107 0.05234179669998916 0 0 0
15 -0.5649705095159125 0.6436193598905636 0.09091899851461727 0 0 0
11 -0.38361002911097886 -0.5187793065308088 -0.018119468056952123 0 0 0
43 0.23860291813770595 0.08757196279588866 -0.630361040875162 0 0 0
19 1.0152103703666242 1.1892158533966624 -0.6657813191533288 0 0 0
20 -0.05064997686478447 -0.4648681649051763 0.7321159964300711 0 0 0
22 -1.1416837246953706 0.08599658584824546 0.4072900118453869 0 0 0
49 0.37131456308699823 -0.902353479986101 0.421822520326176 0 0 0
21 0.7291988300014807 0.7812324394539845 1.1932631294496743 0 0 0
3 0.7809929757544724 0.17740138123495444 -0.12278390617670595 0 0 0
4 -0.7267887388464443 0.4108730604818152 -0.24979931753358478 0 0 0
25 -0.8100225998732413 -0.3165210499246228 -0.40985365885604313 0 0 0
26 0.5205059427607992 -0.08318121152799364 -1.3476146407182863 0 0 0
32 -0.6935999648982528 0.6970425600516039 0.631472330941957 0 0 0
33 1.020084509964293 -1.3911863461564833 0.2982848854430425 0 0 0
34 0.48493218526359677 0.01946568612001499 0.2747915348265151 0 0 0
35 -1.559721818814037 -1.6126046866563575 -0.05613783005185792 0 0 0
36 -1.0938184171153171 -0.43960200648006553 0.04113259961579564 0 0 0
37 1.6538713266663911 -1.12257504674184 0.7670676115755602 0 0 0
40 -0.04044593473686646 0.24641465098116977 1.75960906885081 0 0 0
38 0.08637686538982903 1.355597078136111 -0.5432332163554395 0 0 0
41 1.0630992338939336 0.37223072726043643 1.2217047517957733 0 0 0
42 0.11549963000582611 -0.4186678436447959 0.7468669014105427 0 0 0
44 -1.2007244162922612 -0.5873148509397218 -1.6599433118867033 0 0 0
45 0.35565756593276693 0.14422474551699843 -0.22444114573874221 0 0 0
48 0.5972423434984345 -0.10581151020678686 0.49994735029482257 0 0 0
46 0.7694064004448317 -0.21677889236117437 0.6676807969152009 0 0 0
47 0.8490893723033734 0.7781689724136 -0.5763453699213328 0 0 0
28 -1.017262788914492 0.8059257727906852 0.29910300137058154 0 0 0
29 -0.5102962425281136 -1.2609610312056674 -0.34929362991814406 0 0 0
30 -0.7735133377017414 -0.18614187615424407 0.34379377503756636 0 0 0
51 0.4429826088794887 -0.9464491689917456 0.04810120224406231 0 0 0
27 0.704373281249293 0.6840353028128097 0.5525274157274566 0 0 0
60 -0.9197355331336973 -1.4819563889557297 1.5206376049809294 0 0 0
57 -0.25821637663619146 -0.4826543825937914 1.1705474784816101 0 0 0
59 -0.7945444525637739 0.44745823778394916 -0.7734722477502625 0 0 0
56 -1.4020951678662215 -0.5195333647953091 0.47047968927564354 0 0 0
62 0.40534550906932576 1.0728573682719094 1.020307560176822 0 0 0
64 -1.57386701985001 -0.6115950345166776 -0.48934905343865825 0 0 0
65 -0.308709089770263 -0.16090295545898325 -0.5946015419196117 0 0 0
67 -0.5928742598251913 -0.27888337085194365 0.6933197809834942 0 0 0
69 -0.8186088641549358 0.3380990708580782 -0.7386113049054727 0 0 0
70 0.6660776286933481 0.4906750868862084 -0.23072837425146298 0 0 0
61 -0.5257406970210247 -0.0049618490698421745 -2.5168650674548054 0 0 0
68 1.3356617059289266 -0.18617718356418228 0.3684260288612096 0 0 0
72 0.36144144704120695 -1.275365231657687 0.33559057767931 0 0 0
74 0.06008578501204925 1.3674741260966325 0.045340823214838566 0 0 0
50 0.04246928529305001 2.084527865104919 0.163809169504635 0 0 0
71 0.02696548243384673 1.5962183951488715 -0.07313724935694355 0 0 0
73 0.04523938015460606 -0.08063213847963256 -0.04749313216354765 0 0 0
53 -0.2501427846537503 0.08022567503280176 0.5142377304884382 0 0 0
85 0.06639107213694055 -0.5969735109168901 0.22671063669287594 0 0 0
58 -0.6264429689616521 0.6977254134902089 -0.16058319676411723 0 0 0
89 0.14361217155984832 0.11815839753136327 0.10889365886741208 0 0 0
81 0.6411011392557548 -0.49919077223006136 0.05991367493493217 0 0 0
86 -0.9705236154047835 0.07167419617926299 0.026587700079223682 0 0 0
63 1.292156247026919 -0.37212390288095115 -0.8556946964081992 0 0 0
91 -0.019384407760407688 1.0480218540602273 0.06845989559494192 0 0 0
92 0.16036204543867122 0.6779007864429508 0.32344175789820595 0 0 0
66 -0.4978925935151122 0.5859281613297977 0.4038617611073252 0 0 0
99 0.6363636210322514 0.5783949134771684 -0.1811502321498334 0 0 0
75 -0.23350357920218345 1.4815739696247536 0.10653866238658635 0 0 0
52 -0.9917286157327647 1.1584842564512068 0.5233095386998781 0 0 0
54 -0.7225561694850604 -1.0279382391048073 -0.7863949044024384 0 0 0
55 0.9228212182587696 -0.48829020914040194 0.0745898386310337 0 0 0
77 -0.7928297315252443 0.5440706968886552 -0.46057833497587847 0 0 0
83 0.8102050623449191 -0.17064460301178536 -1.1684487484577726 0 0 0
84 -0.3177946546335125 -0.9181836598555251 0.14966664025690607 0 0 0
76 0.5475582436000564 -1.4038989570203229 -0.6661922928858457 0 0 0
82 0.5716957668504671 0.04231314844605319 -0.03287412153595592 0 0 0
88 0.9694727893755573 1.3099687197054746 -0.10960892664671025 0 0 0
90 0.7948680521609962 0.4253159379838261 0.8044137234830834 0 0 0
111 -0.3828578698509612 0.5092602668922133 -0.07385143804823416 0 0 0
87 -0.2860796549076438 -0.5568109522666562 1.2165076352906008 0 0 0
95 0.005594542319508324 -0.09540981052989168 -0.017676513482861193 0 0 0
122 0.33185806280022495 -0.4784323351933923 -0.6817473738562563 0 0 0
93 0.019140584172758365 0.6732132764560229 -0.10669028717192955 0 0 0
94 -0.0022417914052032446 -1.4049763874968235 0.486782959731035 0 0 0
100 -0.418023204054243 -0.7191840948553576 -0.47273579715913283 0 0 0
98 -0.1053798495295057 -0.8792656009529113 0.06191040783447823 0 0 0
124 -1.4364404399051405 0.2590817474929743 0.27290992085482774 0 0 0
97 -0.4692561122007642 0.10176985843217101 -2.1392234558103724 0 0 0
78 -0.4718192013369848 -0.025791876963641283 0.2921740959961379 0 0 0
79 0.36634986250583845 0.7993966271898416 0.5255594415617881 0 0 0
80 0.36559400206438064 0.2391574060750442 -0.25202275732422164 0 0 0
96 0.6872484584994172 -0.03781091481002747 0.3330518984231553 0 0 0
109 1.3786582969720629 0.9247021044163426 0.3830512683516924 0 0 0
101 0.42803564562504526 -0.1797261362928122 0.33843522223161343 0 0 0
106 0.5562579435863879 -0.2091648783831016 -1.1914423778274879 0 0 0
108 -0.36778848338353237 0.3557808969598862 0.8155049174054186 0 0 0
110 0.5629426350586886 0.2705759330756711 2.0457659407316013 0 0 0
113 0.029286517767207164 -0.03434674572615044 -0.06946839609754653 0 0 0
114 -0.2552820234334534 -1.8126991083287018 -1.984218946316034 0 0 0
117 -0.15718632537992155 1.0472590228235878 -1.7880208895097034 0 0 0
118 -0.1437246558825912 0.22401978832939815 -0.027744579477082542 0 0 0
119 0.9393255611712311 -0.9887844934113411 0.41482145267178755 0 0 0
115 -0.6566902823733629 0.9880359547043062 -0.7601255934501622 0 0 0
120 1.5653596165491868 0.8600190080459497 0.28363136806631695 0 0 0
121 -0.15742415882128002 -0.9316291998995464 1.3230176324707268 0 0 0
103 0.7297829659912212 -0.9935551172707456 -0.6427201225039223 0 0 0
123 -1.03529253050278 -0.200488541219083 0.4881846192140641 0 0 0
102 1.2317932798750295 1.1144702565455955 -0.07355237048599873 0 0 0
104 -0.40759823736426953 0.9655839265270182 -1.4447176885731632 0 0 0
1 -1.6091584593589932 0.8002018318779542 0.5015999543806048 0 0 0
107 -0.18932372218675492 -0.4001154296319766 -0.35547075377920245 0 0 0
9 0.26008174075707924 -0.42163188677244656 0.22815768928949196 0 0 0
10 -0.618292616792162 0.3436887377583678 0.10656913773259859 0 0 0
112 0.7168246523359343 -0.7707414254340759 0.023611168960527385 0 0 0
14 0.2522377121976903 0.7092731253964469 0.2948779883360978 0 0 0
6 -0.14002347493563258 0.8556248281992817 -0.6315613749806529 0 0 0
18 0.22084123600653718 -0.7173302802500868 0.10991233637991897 0 0 0
17 -1.1539130875989778 0.10872746334642151 -1.5149981676128228 0 0 0
23 0.3110928158501047 0.23197534581788887 -0.11205624316183722 0 0 0
116 -0.3017913769399274 0.3835597920938361 -0.4209629027852196 0 0 0
16 0.4013475901195247 0.36239480144901604 -0.6014854189660831 0 0 0
24 1.149818939347229 -1.2985280655004838 0.9114129881531268 0 0 0
125 -0.17464560736732165 -1.0156535625311571 0.5101405235919965 0 0 0
105 0.9373796041450079 0.34923109005751857 -0.05810810119962532 0 0 0

Ellipsoids

2 3 1 1 -0.8201868888528709 -0.079787876086599 -0.3826168807309004 0.41776989451514307
8 3 1 1 0.38859123247990973 0.15476041343427147 -0.9040012116964022 -0.08847529443203075
5 3 1 1 -0.29204745674888904 -0.07223808799842024 0.36141359336539686 0.8825362067244322
7 3 1 1 -0.001207910523568374 0.1633334387312661 -0.985711935992759 0.04114253256417048
31 3 1 1 0.5775973754583935 -0.17812044924920134 -0.4053988160425218 -0.6857887264851762
13 3 1 1 -0.08410673611992203 0.49752099765720353 0.8087006608908376 0.3023278930303276
39 3 1 1 -0.3189924423623961 0.1312734147870974 -0.7359439456786364 0.5825784248534855
12 3 1 1 -0.8371183966465895 0.20552858063365775 -0.5001101090842202 0.08294981211748882
15 3 1 1 -0.0585047691816267 -0.37862329750298845 0.7000115307534552 -0.6026652863598271
11 3 1 1 -0.29812942698057243 0.6660589610987994 -0.38932474273645756 -0.562059204889854
43 3 1 1 -0.33421151493258794 0.030729966282579676 -0.6458529021736668 0.6857349059312848
19 3 1 1 0.24930803046291716 -0.6260682687567817 -0.3216313381681578 -0.6651596132589137
20 3 1 1 -0.0805923803115347 0.8565533941451003 0.3767656886651189 0.3433202106764589
22 3 1 1 0.07992351244370388 -0.5368036342244161 -0.4538752320576563 -0.7067187305899915
49 3 1 1 0.014198339665404678 -0.9144655887726524 -0.005129966710056496 0.40438196985398056
21 3 1 1 0.9040055921111089 -0.17896947741394423 -0.24502792315893832 -0.3011729278312389
3 3 1 1 -0.17058668077641548 -0.6654552900604882 0.6670543714674075 0.2882844199370107
4 3 1 1 -0.020541353957190263 0.5820595420817216 -0.46694402696915216 0.6653931303575756
25 3 1 1 0.07441827697430639 0.2138881078604106 0.8728967721116062 -0.43216318978507107
26 3 1 1 0.02425649887001293 -0.19052881644069816 0.950394466054519 -0.24466456887179575
32 3 1 1 0.9332136468749389 -0.10106528839873798 0.0850133641085202 -0.3341718490390968
33 3 1 1 -0.28841339397795746 -0.30901951091204355 -0.6714112699447558 0.6087130380080314
34 3 1 1 0.1709385119332148 0.6167728746436427 0.7292623131148154 -0.24196637144922578
35 3 1 1 0.33045229097926426 -0.16263016623841875 -0.33938858328218247 -0.865544973963533
36 3 1 1 -0.6557996066854526 0.5584446608284587 0.30858021548792114 0.4035401928839573
37 3 1 1 -0.9631936557942145 -0.06434126896587909 0.014709719224150835 0.26057975114345194
40 3 1 1 -0.11691012703965126 0.17021481437207991 -0.917251625326306 -0.34060005138006205
38 3 1 1 0.22444892705197517 0.6038994147876924 -0.7498512334200998 -0.15050350063255943
41 3 1 1 -0.4255129534586185 0.8247486772546224 -0.18422643616394133 -0.32371123864334334
42 3 1 1 0.04271921040697794 0.9113473774278523 0.19916265080542095 0.3577083522113201
44 3 1 1 0.6353022493207525 -0.1045615146664165 -0.750150226805381 -0.15077326978775962
45 3 1 1 -0.47967252573203023 -0.012075740026867102 -0.8054688555520149 -0.34783382138082203
48 3 1 1 0.572003772253335 0.1522901484878025 -0.6310873543583858 0.5013463337558688
46 3 1 1 0.5687084572413182 -0.1730633039803444 -0.8034732028556979 -0.032412895125444985
47 3 1 1 -0.7944685864849453 0.02047061191882399 -0.3854824868835112 -0.46883245561968656
28 3 1 1 0.21746947492763655 0.77398974574083 0.17340618499497332 0.5688384621034627
29 3 1 1 0.1379918014630709 -0.24989982951819145 0.5927643084339791 -0.7530861920009833
30 3 1 1 -0.36774321524721637 -0.6386751864209185 0.64658082012393 -0.1969572972441251
51 3 1 1 -0.061665059361672575 -0.1806294471871994 0.6598445352908964 0.7267569143183359
27 3 1 1 -0.26341334692945817 -0.07001721328540997 0.892796504352268 -0.35864383491081675
60 3 1 1 0.3548742543965351 -0.16137732423372753 -0.6754438769732874 -0.6259370510274657
57 3 1 1 -0.16221050365808173 0.7090549844965998 -0.4375562405528497 -0.5286523600786954
59 3 1 1 0.638398800788354 -0.4844959380199076 0.19375878256473733 -0.5658340669959986
56 3 1 1 0.06809527366323892 0.11810601325463395 0.36892351480141056 -0.9194071152456882
62 3 1 1 0.36564911618506646 0.03511307760680004 0.9293567359773874 0.03693037919538612
64 3 1 1 0.0828503799423918 0.15204503958606133 0.5140620983606498 0.8400942087109755
65 3 1 1 0.4114634179681715 -0.04847001557627906 -0.06720771914302336 -0.9076517150050329
67 3 1 1 -0.9320788225608667 -0.22960879199211576 0.18657778943830397 -0.20903970833740107
69 3 1 1 -0.8517790299586195 -0.48678842216970547 0.19354016517312367 -0.007191705572515008
70 3 1 1 -0.3150264040652747 0.7332857524507241 0.3703767321634938 -0.47525934632195205
61 3 1 1 -0.17421258843545115 -0.8154468084640693 0.4865839131752669 0.2606387769220614
68 3 1 1 0.7572778804357065 0.0329097310869496 0.6021415383472478 0.2507443502841059
72 3 1 1 -0.8354896403490518 -0.5377030907059603 -0.11230196955566289 0.014856471606300463
74 3 1 1 -0.38424578317725727 -0.5815191641100408 0.6707508646745222 0.2535427329300458
50 3 1 1 -0.4905357036603708 -0.3079941430285978 -0.5392379628174901 -0.6113401268941435
71 3 1 1 0.1454578103562729 -0.5168795093152135 0.8136566231007761 0.22280147652263033
73 3 1 1 0.5034485563946837 0.11398430481258147 -0.8431157438263513 0.15067505378343118
53 3 1 1 -0.14614312859973574 -0.2722251427814296 0.8519396703822956 -0.4227699795747293
85 3 1 1 0.8774898676349215 0.31309473574815844 -0.36007146159941217 -0.04828831314615916
58 3 1 1 0.3698964515577882 -0.6358253249616104 0.5172982483308418 0.43738460596626183
89 3 1 1 -0.09138853037825656 0.3039000266172499 0.4050672134163455 -0.8574458950583729
81 3 1 1 0.8176761742815016 -0.47225640868772945 -0.10685035440286458 0.3113881183181495
86 3 1 1 -0.4623750106319617 -0.8851968867653035 0.04479292144670574 0.025088152430521458
63 3 1 1 0.05630349183375469 -0.07365119151955896 0.9196247686266943 0.3817010659185726
91 3 1 1 0.562577804198991 -0.05581236162840736 0.25833862003942965 -0.783359656804092
92 3 1 1 0.10068461753756888 0.04319319502611902 0.36772133301036264 -0.9234597863165624
66 3 1 1 0.4062347865898662 0.7755158999971316 0.4764764019301991 0.08073800480304452
99 3 1 1 0.6141171915770359 -0.17115102141386312 0.6892193494148933 -0.34430232539243294
75 3 1 1 0.5106043985678193 -0.21183822375877792 -0.2463713656686393 0.7960583303354668
52 3 1 1 0.14386446030819025 -0.4151406611147074 0.8698052204509261 -0.22449972611518426
54 3 1 1 0.23524344446987352 -0.7647130693005662 -0.14405578257469573 0.5823421459774734
55 3 1 1 -0.521095225381831 0.647851872594453 0.552247954721407 -0.06139962350163418
77 3 1 1 -0.2960308682002676 0.6940593060121217 -0.6406153498580504 -0.14233544300986836
83 3 1 1 -0.023652531366884378 0.32109245139982373 -0.9004651860752534 0.29240835159148526
84 3 1 1 0.9393362526499307 -0.06629773047888425 -0.22654523959314596 0.2488559217873246
76 3 1 1 -0.8513989935462929 0.5092057040550194 0.08085654601961037 -0.09639255008541907
82 3 1 1 -0.02895775889430747 -0.35500805469074415 -0.6419527772604379 -0.6789899565325862
88 3 1 1 0.11921314352819531 -0.7376676391014865 0.5940720555037582 -0.29784739969001695
90 3 1 1 0.2723845493694607 -0.21154649569070846 -0.19287328358029016 -0.9186156072627625
111 3 1 1 -0.15913815866097056 -0.9261604715854571 -0.12525380918028534 -0.3181403945059921
87 3 1 1 -0.5295234018728132 0.7098796169700026 -0.3331279836862364 0.32357633220726817
95 3 1 1 0.4840845187948721 -0.02764415208327514 0.41754285725932544 0.7684763769111269
122 3 1 1 0.11870658174615183 -0.30140890809124415 -0.8886536414261172 0.3245860797284595
93 3 1 1 0.7035188331263784 -0.6008796218871132 -0.3346349679237364 0.17895354056284732
94 3 1 1 -0.02925777605931591 -0.3950743303901708 0.8517381292395677 0.34293208541386505
100 3 1 1 0.13274711506150724 0.7312921578677674 -0.6686570044139749 0.02208605288594925
98 3 1 1 -0.40155522170517893 -0.013775363783129645 0.11744621869752528 -0.9081685025300096
124 3 1 1 -0.982293737988158 0.08835044542432124 -0.0293792564349536 0.16257327699811322
97 3 1 1 -0.07371176996149902 0.48747018406573356 -0.8467994234109024 0.19967506385882564
78 3 1 1 -0.5602146996380465 0.29946244021944274 -0.02836343929696212 0.771801303781302
79 3 1 1 -0.020794939097666516 -0.7992013006726854 0.025851495976443536 -0.6001471083549368
80 3 1 1 0.09431753884610311 0.1838369004947314 -0.7238645563271803 0.6582767654837578
96 3 1 1 0.29606868542871434 -0.43977578988603144 -0.5062156771434607 -0.6802104647480938
109 3 1 1 0.7186931189767224 0.4842802413809436 0.46857396615894 -0.17143887185118287
101 3 1 1 -0.5034459375701491 0.020257187924687187 0.4820263561982989 0.7167861788648607
106 3 1 1 0.49344975271903885 -0.33429629835274555 -0.22170194034359345 -0.7717522763795758
108 3 1 1 -0.3274523830567572 0.3279354403075132 0.31807753960365803 -0.8270791755451541
110 3 1 1 0.2250201428092302 -0.09484024620315272 -0.059831637539433075 -0.9678798676383288
113 3 1 1 -0.05422002652124024 0.3818385824949891 -0.0641901163107632 0.9204016050671925
114 3 1 1 0.7706787591723492 0.25599082897918923 -0.23865287289793646 -0.5325107997934663
117 3 1 1 0.5485947563628204 -0.014886147749702169 -0.5636059418044045 0.6173901021713598
118 3 1 1 -0.7266711177882372 -0.46115186854554324 0.4506946191742616 0.23698607755882045
119 3 1 1 -0.2576081905681283 -0.8674921720465212 0.37074883250740864 -0.20890345804849023
115 3 1 1 -0.23196237759017577 0.3066913498952567 -0.3023840433753972 -0.8721798906155105
120 3 1 1 -0.04616099326177783 0.5973211695701862 -0.6951625936913397 -0.3972726411631191
121 3 1 1 0.07090099294664587 -0.5459016113720468 0.8288924490594943 0.09950772730163222
103 3 1 1 -0.21935083902199393 -0.47068186085277325 0.7345579785392049 -0.43677038755954456
123 3 1 1 -0.7268199788911598 0.25876545457358135 0.6129513460771078 -0.1704810990879741
102 3 1 1 0.7521384664068279 -0.006328539634157163 -0.04987446904876067 0.6570846325051197
104 3 1 1 -0.669226546988054 -0.02019521866598879 -0.504082160562239 -0.5455539912349502
1 3 1 1 -0.18335027296774722 0.5454699141174354 -0.7102716319687383 -0.4054127020899015
107 3 1 1 -0.06557873180749348 -0.1317968083951691 -0.4853732240852671 -0.8618247296129539
9 3 1 1 0.2722664083710454 -0.0032687829596919162 0.19963419630861098 0.9412791857865065
10 3 1 1 0.5113019882278463 0.6188602047988448 -0.29991764699458007 -0.5153947310283813