ITEM: TIMESTEP
0
ITEM: NUMBER OF ATOMS
125
ITEM: BOX BOUNDS pp pp pp
0.0000000000000000e+00 5.5032120814910446e+00
0.0000000000000000e+00 5.5032120814910446e+00
0.0000000000000000e+00 5.5032120814910446e+00
ITEM: ATOMS id type xs ys zs
1 1 0 0 0
2 1 0.2 0 0
3 1 0.4 0 0
4 1 0.6 0 0
5 1 0.8 0 0
6 1 0 0.2 0
7 1 0.2 0.2 0
8 1 0.4 0.2 0
9 1 0.6 0.2 0
10 1 0.8 0.2 0
11 1 0 0.4 0
12 1 0.2 0.4 0
13 1 0.4 0.4 0
14 1 0.6 0.4 0
15 1 0.8 0.4 0
16 1 0 0.6 0
17 1 0.2 0.6 0
18 1 0.4 0.6 0
19 1 0.6 0.6 0
20 1 0.8 0.6 0
21 1 0 0.8 0
22 1 0.2 0.8 0
23 1 0.4 0.8 0
24 1 0.6 0.8 0
25 1 0.8 0.8 0
26 1 0 0 0.2
27 1 0.2 0 0.2
28 1 0.4 0 0.2
29 1 0.6 0 0.2
30 1 0.8 0 0.2
31 1 0 0.2 0.2
32 1 0.2 0.2 0.2
33 1 0.4 0.2 0.2
34 1 0.6 0.2 0.2
35 1 0.8 0.2 0.2
36 1 0 0.4 0.2
37 1 0.2 0.4 0.2
38 1 0.4 0.4 0.2
39 1 0.6 0.4 0.2
40 1 0.8 0.4 0.2
41 1 0 0.6 0.2
42 1 0.2 0.6 0.2
43 1 0.4 0.6 0.2
44 1 0.6 0.6 0.2
45 1 0.8 0.6 0.2
46 1 0 0.8 0.2
47 1 0.2 0.8 0.2
48 1 0.4 0.8 0.2
49 1 0.6 0.8 0.2
50 1 0.8 0.8 0.2
51 1 0 0 0.4
52 1 0.2 0 0.4
53 1 0.4 0 0.4
54 1 0.6 0 0.4
55 1 0.8 0 0.4
56 1 0 0.2 0.4
57 1 0.2 0.2 0.4
58 1 0.4 0.2 0.4
59 1 0.6 0.2 0.4
60 1 0.8 0.2 0.4
61 1 0 0.4 0.4
62 1 0.2 0.4 0.4
63 1 0.4 0.4 0.4
64 1 0.6 0.4 0.4
65 1 0.8 0.4 0.4
66 1 0 0.6 0.4
67 1 0.2 0.6 0.4
68 1 0.4 0.6 0.4
69 1 0.6 0.6 0.4
70 1 0.8 0.6 0.4
71 1 0 0.8 0.4
72 1 0.2 0.8 0.4
73 1 0.4 0.8 0.4
74 1 0.6 0.8 0.4
75 1 0.8 0.8 0.4
76 1 0 0 0.6
77 1 0.2 0 0.6
78 1 0.4 0 0.6
79 1 0.6 0 0.6
80 1 0.8 0 0.6
81 1 0 0.2 0.6
82 1 0.2 0.2 0.6
83 1 0.4 0.2 0.6
84 1 0.6 0.2 0.6
85 1 0.8 0.2 0.6
86 1 0 0.4 0.6
87 1 0.2 0.4 0.6
88 1 0.4 0.4 0.6
89 1 0.6 0.4 0.6
90 1 0.8 0.4 0.6
91 1 0 0.6 0.6
92 1 0.2 0.6 0.6
93 1 0.4 0.6 0.6
94 1 0.6 0.6 0.6
95 1 0.8 0.6 0.6
96 1 0 0.8 0.6
97 1 0.2 0.8 0.6
98 1 0.4 0.8 0.6
99 1 0.6 0.8 0.6
100 1 0.8 0.8 0.6
101 1 0 0 0.8
102 1 0.2 0 0.8
103 1 0.4 0 0.8
104 1 0.6 0 0.8
105 1 0.8 0 0.8
106 1 0 0.2 0.8
107 1 0.2 0.2 0.8
108 1 0.4 0.2 0.8
109 1 0.6 0.2 0.8
110 1 0.8 0.2 0.8
111 1 0 0.4 0.8
112 1 0.2 0.4 0.8
113 1 0.4 0.4 0.8
114 1 0.6 0.4 0.8
115 1 0.8 0.4 0.8
116 1 0 0.6 0.8
117 1 0.2 0.6 0.8
118 1 0.4 0.6 0.8
119 1 0.6 0.6 0.8
120 1 0.8 0.6 0.8
121 1 0 0.8 0.8
122 1 0.2 0.8 0.8
123 1 0.4 0.8 0.8
124 1 0.6 0.8 0.8
125 1 0.8 0.8 0.8
ITEM: TIMESTEP
5000
ITEM: NUMBER OF ATOMS
125
ITEM: BOX BOUNDS pp pp pp
0.0000000000000000e+00 5.5032120814910446e+00
0.0000000000000000e+00 5.5032120814910446e+00
0.0000000000000000e+00 5.5032120814910446e+00
ITEM: ATOMS id type xs ys zs
2 1 0.237067 0.0226407 0.0498866
4 1 0.655338 0.0308261 0.0104406
5 1 0.857759 0.0205776 0.00980593
31 1 0.0156912 0.218536 0.131399
8 1 0.404486 0.150258 0.0434341
11 1 0.0363695 0.433496 0.00979045
13 1 0.419731 0.342318 0.0194591
12 1 0.235253 0.41495 0.049601
16 1 0.046255 0.649604 0.0342952
19 1 0.645213 0.617066 0.0303445
25 1 0.754004 0.838884 0.0136952
26 1 0.0385219 0.0265705 0.199188
28 1 0.439269 0.0335672 0.192703
32 1 0.240791 0.183663 0.175224
33 1 0.423553 0.241363 0.254471
34 1 0.608087 0.172965 0.184707
35 1 0.811199 0.174674 0.194042
36 1 0.00226797 0.399502 0.216201
37 1 0.221272 0.369669 0.239301
38 1 0.409317 0.439695 0.204993
39 1 0.591105 0.373555 0.143384
40 1 0.792882 0.377366 0.180005
41 1 0.0202763 0.604235 0.244886
42 1 0.229153 0.58182 0.173331
43 1 0.424558 0.646819 0.163946
44 1 0.625994 0.609854 0.235846
45 1 0.825156 0.582287 0.17609
47 1 0.170624 0.771555 0.17028
48 1 0.366567 0.84588 0.194099
49 1 0.563069 0.797234 0.158213
50 1 0.77006 0.775399 0.209971
46 1 0.969277 0.813443 0.192554
27 1 0.24075 0.985604 0.251031
29 1 0.635073 0.973065 0.219372
30 1 0.843893 0.970544 0.226145
51 1 0.032685 0.0141898 0.412587
53 1 0.421271 0.0555412 0.390355
56 1 0.0188616 0.198407 0.327885
57 1 0.240123 0.158921 0.363938
59 1 0.621681 0.229408 0.383869
60 1 0.822397 0.153636 0.408697
65 1 0.779517 0.356672 0.390524
61 1 0.989868 0.401352 0.420898
67 1 0.192417 0.539774 0.371516
63 1 0.373679 0.458972 0.415398
64 1 0.566833 0.444363 0.332653
70 1 0.804791 0.56045 0.373467
68 1 0.435088 0.645881 0.368865
72 1 0.165844 0.739189 0.368179
73 1 0.363104 0.838265 0.400193
74 1 0.567356 0.804413 0.360955
75 1 0.754009 0.771307 0.426263
71 1 0.956923 0.793256 0.403747
52 1 0.223187 0.965582 0.4512
55 1 0.840518 0.955262 0.43294
54 1 0.62752 0.0362957 0.443152
58 1 0.392721 0.260656 0.451065
81 1 0.957227 0.235832 0.536465
62 1 0.208362 0.341259 0.43919
89 1 0.58746 0.409882 0.537356
66 1 0.00895679 0.60292 0.454319
69 1 0.617031 0.612755 0.434922
99 1 0.609164 0.833931 0.561412
77 1 0.166878 0.0509256 0.614263
78 1 0.39965 0.0141175 0.597005
79 1 0.595472 0.00470357 0.655139
85 1 0.73896 0.118428 0.587381
76 1 0.951589 0.0589583 0.609988
82 1 0.151089 0.254735 0.612817
83 1 0.338031 0.20368 0.648625
84 1 0.544571 0.199866 0.594888
88 1 0.410324 0.400157 0.624309
90 1 0.771073 0.316125 0.590362
87 1 0.218605 0.438357 0.638215
95 1 0.83006 0.529936 0.582055
86 1 0.0179244 0.445655 0.637016
91 1 0.016619 0.672169 0.640763
92 1 0.204727 0.627213 0.578809
93 1 0.406827 0.605175 0.569717
94 1 0.628925 0.604927 0.650188
97 1 0.186894 0.844444 0.599384
98 1 0.403686 0.808196 0.59107
100 1 0.804099 0.728535 0.621341
96 1 0.986621 0.866739 0.605348
80 1 0.799795 0.930837 0.655166
106 1 0.0436648 0.158722 0.762642
107 1 0.241357 0.151066 0.820286
108 1 0.439521 0.194961 0.82926
109 1 0.638433 0.161264 0.779113
110 1 0.836405 0.169739 0.756852
112 1 0.172359 0.353249 0.844028
113 1 0.372068 0.385463 0.825735
114 1 0.5652 0.391075 0.75361
115 1 0.7645 0.404029 0.780911
111 1 0.963412 0.376435 0.825516
117 1 0.152718 0.56794 0.777239
118 1 0.363659 0.588987 0.770994
119 1 0.546319 0.628359 0.833929
120 1 0.752692 0.613768 0.804017
116 1 0.954135 0.599211 0.827668
121 1 0.0572014 0.781172 0.80643
122 1 0.260662 0.765121 0.774574
123 1 0.459591 0.793413 0.780937
124 1 0.661176 0.786366 0.753346
125 1 0.850325 0.804478 0.814582
102 1 0.137856 0.967008 0.807804
103 1 0.338379 0.963278 0.799945
104 1 0.535694 0.0113108 0.849177
105 1 0.740502 0.987448 0.840275
101 1 0.9383 0.98833 0.800192
1 1 0.0522514 0.02489 0.971986
7 1 0.156566 0.209241 0.99849
9 1 0.580136 0.23131 0.978668
10 1 0.785264 0.202424 0.985547
6 1 0.961098 0.212416 0.933328
15 1 0.821305 0.426122 0.979891
18 1 0.414203 0.552154 0.983497
14 1 0.597121 0.441528 0.946268
17 1 0.225521 0.616336 0.953155
20 1 0.848448 0.665354 0.986126
22 1 0.153061 0.841856 0.968099
23 1 0.352289 0.762587 0.995589
24 1 0.566554 0.78983 0.950419
21 1 0.959315 0.843941 0.987177
3 1 0.41984 0.956078 0.994707
ITEM: TIMESTEP
10000
ITEM: NUMBER OF ATOMS
125
ITEM: BOX BOUNDS pp pp pp
0.0000000000000000e+00 5.5032120814910446e+00
0.0000000000000000e+00 5.5032120814910446e+00
0.0000000000000000e+00 5.5032120814910446e+00
ITEM: ATOMS id type xs ys zs
8 1 0.387889 0.126574 0.0142507
4 1 0.648373 0.0542643 0.0351267
5 1 0.8462 0.111164 0.0111691
7 1 0.17894 0.217935 0.0502118
31 1 0.986753 0.248843 0.126017
12 1 0.20667 0.420136 0.0568028
13 1 0.410931 0.341195 0.0447764
39 1 0.640193 0.376211 0.119049
16 1 0.0226747 0.670592 0.00725085
42 1 0.210627 0.612541 0.147241
43 1 0.472834 0.676019 0.161449
19 1 0.631853 0.604856 0.0145084
20 1 0.807597 0.701257 0.0172002
2 1 0.230532 0.990787 0.0743838
3 1 0.453915 0.922324 0.0440465
25 1 0.765153 0.896746 0.0664678
26 1 0.082359 0.0651637 0.195364
32 1 0.263469 0.159105 0.232106
34 1 0.583697 0.173971 0.205774
35 1 0.822237 0.166917 0.216766
37 1 0.219343 0.352449 0.252042
33 1 0.415263 0.294236 0.245027
40 1 0.835572 0.373293 0.185508
36 1 0.0417834 0.455479 0.186221
38 1 0.397342 0.487377 0.185156
45 1 0.868061 0.584882 0.160496
41 1 0.044576 0.649872 0.248958
44 1 0.65787 0.588359 0.215655
47 1 0.11909 0.845796 0.164429
48 1 0.319059 0.804783 0.164524
49 1 0.590843 0.83081 0.142664
50 1 0.761573 0.784578 0.265421
46 1 0.929343 0.783974 0.157339
27 1 0.237755 0.953026 0.277598
28 1 0.474947 0.98658 0.226545
29 1 0.695206 0.98746 0.241482
30 1 0.89844 0.978795 0.264647
51 1 0.0695347 0.0180059 0.400546
53 1 0.40476 0.0369947 0.409255
60 1 0.896125 0.126026 0.401654
56 1 0.0684304 0.225458 0.317534
59 1 0.62305 0.204736 0.41991
65 1 0.763501 0.350697 0.397788
61 1 0.9574 0.389233 0.355957
63 1 0.344474 0.426867 0.395706
64 1 0.580736 0.422546 0.310097
70 1 0.808368 0.54187 0.366819
67 1 0.19772 0.558356 0.349507
68 1 0.419485 0.606553 0.350191
69 1 0.616975 0.609021 0.408471
72 1 0.18069 0.775009 0.352425
73 1 0.382807 0.827554 0.362549
74 1 0.579842 0.788321 0.346138
71 1 0.982016 0.821943 0.366943
85 1 0.704948 0.0841974 0.56352
57 1 0.22938 0.157523 0.432121
58 1 0.415939 0.235974 0.459944
81 1 0.90732 0.282359 0.532097
62 1 0.164533 0.343426 0.451147
89 1 0.601889 0.424291 0.505027
95 1 0.831986 0.471372 0.558517
92 1 0.236668 0.697156 0.535914
93 1 0.456524 0.605447 0.543951
66 1 0.979085 0.632824 0.44494
99 1 0.592829 0.777011 0.562712
75 1 0.769067 0.735965 0.462117
52 1 0.249163 0.942067 0.474327
54 1 0.584113 0.973857 0.458194
55 1 0.814923 0.932418 0.45585
77 1 0.163434 0.0596674 0.618971
78 1 0.363436 0.0380974 0.639525
76 1 0.9346 0.0826872 0.602893
82 1 0.107954 0.280797 0.632885
83 1 0.30376 0.225971 0.657834
84 1 0.538153 0.189909 0.607215
88 1 0.411185 0.408955 0.591954
90 1 0.718608 0.29126 0.606164
86 1 0.0370737 0.473877 0.580095
87 1 0.232031 0.496035 0.578661
91 1 0.0245737 0.696944 0.633752
94 1 0.664062 0.579287 0.61676
98 1 0.388072 0.839191 0.586212
100 1 0.815685 0.701066 0.660223
97 1 0.186271 0.869843 0.664107
79 1 0.556373 0.972629 0.662042
80 1 0.793527 0.931804 0.65691
96 1 0.982272 0.88825 0.572945
106 1 0.0600487 0.138864 0.769582
107 1 0.255419 0.111081 0.844732
104 1 0.505928 0.982749 0.856398
109 1 0.655499 0.118867 0.806564
108 1 0.442471 0.182489 0.802351
110 1 0.841102 0.188982 0.771663
112 1 0.143542 0.357874 0.822819
113 1 0.369241 0.378847 0.837531
114 1 0.558385 0.346256 0.737774
111 1 0.94778 0.404078 0.767486
118 1 0.357698 0.554614 0.732672
119 1 0.552424 0.570108 0.795035
115 1 0.736897 0.440599 0.747823
117 1 0.121337 0.54929 0.768144
120 1 0.739026 0.62093 0.837918
116 1 0.941596 0.600115 0.832561
121 1 0.0614693 0.766831 0.824814
122 1 0.253316 0.722433 0.790347
123 1 0.455509 0.743755 0.776963
124 1 0.655065 0.801665 0.750884
125 1 0.857572 0.782514 0.837009
102 1 0.12676 0.962363 0.833813
103 1 0.321008 0.910371 0.83631
101 1 0.917479 0.997187 0.825146
1 1 0.0437349 0.0629513 0.991846
9 1 0.572527 0.227254 0.00532489
6 1 0.976169 0.243385 0.921969
11 1 0.00325615 0.426774 0.989688
14 1 0.61716 0.412162 0.919915
10 1 0.776782 0.295175 1.00349
18 1 0.430732 0.525846 0.962628
15 1 0.812936 0.483444 0.967218
17 1 0.223882 0.578056 0.940269
22 1 0.199765 0.81485 0.974193
23 1 0.404457 0.725874 0.968586
24 1 0.584297 0.810327 0.940584
105 1 0.725583 0.951816 0.878344
21 1 0.957827 0.879524 0.984921
ITEM: TIMESTEP
15000
ITEM: NUMBER OF ATOMS
125
ITEM: BOX BOUNDS pp pp pp
0.0000000000000000e+00 5.5032120814910446e+00
0.0000000000000000e+00 5.5032120814910446e+00
0.0000000000000000e+00 5.5032120814910446e+00
ITEM: ATOMS id type xs ys zs
8 1 0.411668 0.106216 0.0846355
4 1 0.60171 0.0284822 0.0312067
5 1 0.852064 0.123346 0.00728021
7 1 0.179419 0.258135 0.0339537
31 1 0.972071 0.252858 0.120155
13 1 0.381999 0.298679 0.0476212
39 1 0.605828 0.403331 0.12912
10 1 0.732075 0.297437 0.0247615
11 1 0.0066359 0.482088 -0.00157211
12 1 0.236831 0.451583 0.0630875
16 1 0.0186369 0.705622 0.00975012
43 1 0.435572 0.662134 0.120596
19 1 0.606166 0.59554 0.0128839
49 1 0.605089 0.787988 0.126628
20 1 0.774967 0.717993 0.03822
2 1 0.238553 0.995248 0.0492898
3 1 0.454919 0.864443 0.0248486
25 1 0.788382 0.926857 0.0452889
21 1 0.993106 0.922988 0.00475795
26 1 0.0881304 0.0632111 0.167413
29 1 0.686327 0.0135738 0.257032
32 1 0.264565 0.174027 0.206156
33 1 0.456391 0.277826 0.236205
34 1 0.620442 0.194439 0.155813
35 1 0.817278 0.180322 0.231155
36 1 0.0727633 0.420552 0.205389
37 1 0.268203 0.36992 0.237989
40 1 0.804576 0.378596 0.201755
38 1 0.430573 0.484354 0.189937
45 1 0.858203 0.562823 0.167557
41 1 0.0420121 0.620776 0.241137
42 1 0.239874 0.631094 0.161704
44 1 0.637846 0.617117 0.24369
48 1 0.329263 0.809847 0.202765
50 1 0.766577 0.825744 0.279241
46 1 0.947787 0.790088 0.176762
47 1 0.129133 0.863744 0.154141
28 1 0.477347 0.950417 0.24738
30 1 0.899736 0.98053 0.219071
51 1 0.0383702 0.0352727 0.391639
60 1 0.866492 0.142027 0.415542
56 1 0.0371501 0.232786 0.326373
59 1 0.610238 0.177575 0.400129
62 1 0.147077 0.377418 0.411249
64 1 0.568198 0.409993 0.338539
65 1 0.750525 0.351681 0.412598
63 1 0.341508 0.443653 0.412678
70 1 0.751089 0.552337 0.41006
61 1 0.932134 0.449872 0.350403
67 1 0.177219 0.578441 0.387596
68 1 0.369484 0.623677 0.325879
72 1 0.181398 0.773811 0.326575
73 1 0.38908 0.854162 0.403848
74 1 0.572553 0.77893 0.356525
71 1 0.966344 0.831265 0.364272
27 1 0.231035 0.985686 0.285038
55 1 0.799973 0.952853 0.426251
53 1 0.385192 0.0381312 0.497139
85 1 0.739351 0.090563 0.564679
57 1 0.204468 0.149978 0.432928
58 1 0.394121 0.251255 0.443554
89 1 0.594369 0.407741 0.530169
81 1 0.913672 0.284198 0.533576
86 1 0.0134511 0.462447 0.543432
87 1 0.240314 0.506761 0.571324
92 1 0.286087 0.716511 0.500983
69 1 0.547622 0.585849 0.43934
66 1 0.946481 0.636351 0.443296
99 1 0.567905 0.740478 0.557212
75 1 0.764481 0.75181 0.4753
96 1 0.0301669 0.884838 0.558745
52 1 0.200293 0.916355 0.468359
54 1 0.599363 0.96167 0.444081
77 1 0.152871 0.0493641 0.61516
78 1 0.351422 0.0166098 0.696949
76 1 0.956987 0.0977811 0.63478
82 1 0.104456 0.249999 0.595269
83 1 0.287717 0.219526 0.682624
84 1 0.531427 0.190964 0.585359
90 1 0.730096 0.275369 0.617254
88 1 0.396476 0.370681 0.59575
95 1 0.818911 0.460455 0.585916
91 1 0.110237 0.686088 0.605462
93 1 0.424222 0.61001 0.615347
94 1 0.654458 0.573049 0.629363
100 1 0.922195 0.690447 0.652144
98 1 0.40065 0.842804 0.613175
124 1 0.723138 0.762369 0.691321
97 1 0.195013 0.861176 0.668774
79 1 0.581892 0.927383 0.657421
80 1 0.829225 0.93009 0.665639
107 1 0.263983 0.110044 0.853164
109 1 0.65302 0.14057 0.74733
101 1 0.915266 0.00688428 0.833821
106 1 0.105368 0.210432 0.787642
108 1 0.465829 0.159697 0.787775
110 1 0.842254 0.20568 0.772125
113 1 0.392609 0.341909 0.834277
114 1 0.571882 0.329886 0.725525
115 1 0.732998 0.41878 0.773925
111 1 0.955959 0.36064 0.710667
117 1 0.104661 0.514545 0.724721
118 1 0.303967 0.497609 0.769172
119 1 0.505112 0.536128 0.796826
122 1 0.289441 0.703534 0.749144
120 1 0.703119 0.625564 0.841157
116 1 0.950398 0.586881 0.823833
121 1 0.0867992 0.746442 0.819222
123 1 0.523819 0.755614 0.752016
102 1 0.115531 0.96384 0.816948
103 1 0.318506 0.90438 0.858224
104 1 0.511565 0.961958 0.840232
1 1 0.0614213 0.113414 0.976077
9 1 0.551103 0.214282 0.963957
112 1 0.138178 0.393008 0.888039
14 1 0.586856 0.409801 0.923249
6 1 0.956416 0.298626 0.906841
18 1 0.407931 0.508966 0.983984
15 1 0.815874 0.475477 0.963391
17 1 0.217736 0.60297 0.914881
23 1 0.448238 0.693256 0.918115
22 1 0.215368 0.79644 0.985175
24 1 0.64134 0.802188 0.913944
125 1 0.870719 0.79259 0.873039
105 1 0.71542 0.977451 0.859738
ITEM: TIMESTEP
20000
ITEM: NUMBER OF ATOMS
125
ITEM: BOX BOUNDS pp pp pp
0.0000000000000000e+00 5.5032120814910446e+00
0.0000000000000000e+00 5.5032120814910446e+00
0.0000000000000000e+00 5.5032120814910446e+00
ITEM: ATOMS id type xs ys zs
2 1 0.231211 0.0336975 0.0709846
8 1 0.425187 0.0930931 0.0895066
5 1 0.873767 0.0599327 0.0301159
7 1 0.180403 0.279911 0.0330997
31 1 0.942435 0.25385 0.0895962
13 1 0.388538 0.302235 0.0709646
39 1 0.585499 0.355478 0.111848
12 1 0.212357 0.477672 0.0649171
15 1 0.784257 0.463388 0.0209352
11 1 0.98975 0.533023 0.0572202
43 1 0.424101 0.673108 0.104115
19 1 0.602968 0.593555 -0.00390207
20 1 0.798608 0.664767 0.029231
22 1 0.256456 0.80969 0.0467074
49 1 0.589064 0.80689 0.134135
21 1 0.0355225 0.925492 0.0534851
3 1 0.429465 0.906716 0.00788406
4 1 0.612631 0.993122 0.00734178
25 1 0.772553 0.872674 0.0604268
26 1 0.0748026 0.112132 0.181154
32 1 0.272291 0.194505 0.188577
33 1 0.460697 0.193094 0.271642
34 1 0.605104 0.144841 0.150589
35 1 0.784478 0.205947 0.201628
36 1 0.0697294 0.407933 0.199827
37 1 0.282343 0.392153 0.264998
40 1 0.769395 0.398301 0.210903
38 1 0.445653 0.491393 0.193858
41 1 0.0214454 0.614397 0.252492
42 1 0.202146 0.654684 0.16593
44 1 0.620748 0.602288 0.210725
45 1 0.822786 0.595957 0.225116
48 1 0.317746 0.820513 0.235407
46 1 0.927467 0.784012 0.177799
47 1 0.120617 0.891404 0.227878
28 1 0.471616 0.984611 0.241189
29 1 0.723248 0.988764 0.223618
30 1 0.921047 0.978893 0.217278
51 1 0.0353616 0.0661266 0.390659
27 1 0.275222 0.0161976 0.297462
60 1 0.84388 0.130868 0.38782
57 1 0.205369 0.166799 0.407258
59 1 0.651419 0.137971 0.347669
56 1 0.977664 0.249142 0.296228
62 1 0.126896 0.353592 0.393027
64 1 0.561904 0.365733 0.318682
65 1 0.743813 0.322035 0.409772
67 1 0.184236 0.545552 0.351057
69 1 0.528377 0.570004 0.398262
70 1 0.723633 0.546555 0.408078
61 1 0.90797 0.443118 0.355098
68 1 0.365406 0.634127 0.314217
72 1 0.177977 0.748439 0.367034
74 1 0.573212 0.762923 0.338838
50 1 0.775922 0.781345 0.308778
71 1 0.986265 0.836741 0.375151
73 1 0.403508 0.866509 0.411933
53 1 0.357776 0.0410667 0.515104
85 1 0.702438 0.129227 0.527489
58 1 0.383592 0.266534 0.44982
89 1 0.582848 0.371561 0.520543
81 1 0.94108 0.296278 0.498458
86 1 0.0516168 0.484139 0.540154
63 1 0.365993 0.464115 0.444179
91 1 0.12411 0.691355 0.56262
92 1 0.321113 0.702162 0.497884
66 1 0.938704 0.645089 0.439959
99 1 0.569558 0.748695 0.536029
75 1 0.770142 0.729144 0.503269
52 1 0.204612 0.911485 0.46547
54 1 0.599076 0.968829 0.434062
55 1 0.817539 0.926621 0.458097
77 1 0.144513 0.0595802 0.581577
83 1 0.305854 0.18919 0.658349
84 1 0.50949 0.168555 0.572861
76 1 0.963638 0.138626 0.64352
82 1 0.148592 0.291837 0.588534
88 1 0.394583 0.398734 0.639174
90 1 0.756629 0.301634 0.639567
111 1 0.991966 0.349885 0.697985
87 1 0.22751 0.521318 0.588135
95 1 0.849545 0.47296 0.573808
122 1 0.275132 0.69607 0.695837
93 1 0.450926 0.596666 0.606476
94 1 0.693215 0.586744 0.634481
100 1 0.90299 0.674298 0.645487
98 1 0.409359 0.85144 0.625804
124 1 0.73284 0.794712 0.706244
97 1 0.157987 0.860501 0.659141
78 1 0.293083 1.00253 0.705433
79 1 0.577925 0.963075 0.637594
80 1 0.827846 0.985532 0.651656
96 1 0.961959 0.857737 0.57869
109 1 0.688613 0.139639 0.78886
101 1 0.944611 0.00943085 0.82382
106 1 0.12992 0.204273 0.783773
108 1 0.47969 0.157716 0.779053
110 1 0.913013 0.214793 0.835478
113 1 0.321543 0.30036 0.845141
114 1 0.575142 0.345834 0.711885
117 1 0.0724717 0.54571 0.745257
118 1 0.300428 0.495053 0.786375
119 1 0.541977 0.530557 0.782931
115 1 0.797219 0.464884 0.772204
120 1 0.726879 0.632252 0.823342
121 1 0.046213 0.762859 0.791342
103 1 0.312754 0.827189 0.8516
123 1 0.532634 0.739329 0.736736
102 1 0.146564 0.977936 0.838423
104 1 0.465762 0.951766 0.802777
1 1 0.0507163 0.13658 0.970772
107 1 0.323511 0.0809366 0.891582
9 1 0.551116 0.203336 0.952687
10 1 0.741203 0.210072 0.99566
112 1 0.141711 0.413169 0.883143
14 1 0.624365 0.388295 0.898656
6 1 0.938781 0.383249 0.92216
18 1 0.444222 0.477808 0.98733
17 1 0.209557 0.645982 0.881509
23 1 0.409256 0.652015 0.879994
116 1 0.927247 0.590693 0.878322
16 1 0.0542239 0.715564 0.990694
24 1 0.589399 0.817473 0.906283
125 1 0.848417 0.788094 0.871058
105 1 0.748899 0.961342 0.87142
