# LAMMPS data file written by OVITO Basic 3.9.2

2 atoms
1 atom types
2 ellipsoids

-3.0 3.0 xlo xhi
-3.0 3.0 ylo yhi
-3.0 3.0 zlo zhi

Atoms  # ellipsoid

1 1 1 238.7324039657 -1.5 1.5 0 0 0 0
2 1 1 238.7324039657 1.5 -1.5 0 0 0 0

Velocities

1 0.0 0.0 0.3 0.0 0.0 0.0
2 0.0 0.0 -0.3 0.0 0.0 0.0

Ellipsoids

1 0.5 0.5 1.0 1.0 0.0 0.0 0.0
2 0.5 1.0 0.5 0.9237853184 0.382910976 0.0 0.0
