LAMMPS data file via write_data, version 10 Sep 2025, timestep = 100000, units = lj

9261 atoms
1 atom types
9261 ellipsoids

0 23.113490742262385 xlo xhi
0 23.113490742262385 ylo yhi
0 23.113490742262385 zlo zhi

Atoms # ellipsoid/kk

1 1 1 5.968310365946075 1.0540877700889013 0.26506508306064114 0.23721248413926185 0 0 0
19 1 1 5.968310365946075 4.778959739510286 0.6839687709403901 0.11479652116279879 0 0 0
29 1 1 5.968310365946075 8.002093665082572 0.1053232469450864 0.17429555172851094 0 0 0
37 1 1 5.968310365946075 10.445051710539678 0.428709273398781 0.004726493830769639 0 0 0
45 1 1 5.968310365946075 12.419375815982848 0.15620415072949448 0.2275034011216296 0 0 0
56 1 1 5.968310365946075 14.517848015466033 0.6021966452715933 0.4461887660388662 0 0 0
57 1 1 5.968310365946075 15.904614034314749 0.27309614063620374 0.5529357923672145 0 0 0
69 1 1 5.968310365946075 18.44645514381869 0.4230594234732042 0.09222002744168255 0 0 0
80 1 1 5.968310365946075 20.84297101867946 0.6678546471530635 0.5680089218865799 0 0 0
81 1 1 5.968310365946075 21.928639921806337 0.37178428031304667 0.2927960286974991 0 0 0
86 1 1 5.968310365946075 0.34567953143840274 1.149666331937312 0.3204142075684755 0 0 0
893 1 1 5.968310365946075 2.0550610948712564 0.7799742880319808 0.06695560924132632 0 0 0
23 1 1 5.968310365946075 5.932443583942737 1.020947870797814 0.29772655936409764 0 0 0
32 1 1 5.968310365946075 7.875787243424146 1.2073346894434231 0.30965237182792865 0 0 0
36 1 1 5.968310365946075 9.34077371046637 0.7804965874641167 0.37749369146397743 0 0 0
43 1 1 5.968310365946075 10.693506949371848 1.3698313550425871 0.6335382930509953 0 0 0
48 1 1 5.968310365946075 11.740210594326719 1.0221794910773225 0.4471580529164593 0 0 0
59 1 1 5.968310365946075 15.40999160343382 1.178390252900866 0.10953812331433546 0 0 0
63 1 1 5.968310365946075 16.792166179693872 0.7247325061330632 0.03264332093571909 0 0 0
67 1 1 5.968310365946075 17.749782654938056 1.0322989152959552 0.7023084894455104 0 0 0
157 1 1 5.968310365946075 18.811259663681714 1.4023432308550832 0.6366962924743629 0 0 0
8455 1 1 5.968310365946075 19.702665893346385 0.7399190105619622 0.10773570688040193 0 0 1
84 1 1 5.968310365946075 22.411245224563334 1.309824745572799 0.6466796253897595 0 0 0
12 1 1 5.968310365946075 2.8309046057173104 1.8027779442344078 0.35221151607653256 0 0 0
97 1 1 5.968310365946075 4.1152670142354015 1.6222985398913758 0.14914880084423954 0 0 0
109 1 1 5.968310365946075 5.7709954597480495 2.124476829095304 0.29670716472763103 0 0 0
31 1 1 5.968310365946075 6.981689114912727 1.9339636798657718 0.06542748925779064 0 0 0
40 1 1 5.968310365946075 9.664027636089195 1.8315717168147696 0.6405631372093178 0 0 0
133 1 1 5.968310365946075 13.872411780688171 1.5330854978800323 0.3874038735670863 0 0 0
149 1 1 5.968310365946075 16.95149753563532 1.8021549866236979 0.38885938514309787 0 0 0
165 1 1 5.968310365946075 21.127908273796507 2.1117403392941028 0.28342949035708165 0 0 0
8 1 1 5.968310365946075 0.7651438573056452 2.1744805996467993 0.5237243396936938 0 0 0
91 1 1 5.968310365946075 2.391084618506356 2.8427180470067825 0.0023728253840641666 0 0 0
104 1 1 5.968310365946075 3.4916146292140113 2.708389731903083 0.40996958431876857 0 0 0
101 1 1 5.968310365946075 4.584947004772867 2.4982247608804893 0.6811582581064058 0 0 0
8493 1 1 5.968310365946075 8.086455949303721 2.3267132213199275 0.18394454802703641 0 0 1
121 1 1 5.968310365946075 9.57036482327717 2.782696133002655 0.029832447590040334 0 0 0
130 1 1 5.968310365946075 12.960893520916462 2.347560174780466 0.20071925153633224 0 0 0
134 1 1 5.968310365946075 14.286577453711217 2.72324545516937 0.47136446178960223 0 0 0
145 1 1 5.968310365946075 15.414183640628416 2.2443385315612883 0.4836739590175296 0 0 0
151 1 1 5.968310365946075 16.620086640650314 2.871955754621572 0.499968666158779 0 0 0
153 1 1 5.968310365946075 18.123423995065025 2.2483833922831207 0.6418999269184489 0 0 0
161 1 1 5.968310365946075 20.102306753565532 2.869950206635137 0.39200469183832887 0 0 0
92 1 1 5.968310365946075 22.847822274163374 2.400452312629537 0.07071099771005646 -1 0 0
90 1 1 5.968310365946075 1.3591091364935974 3.0899095901025 0.4937048014741638 0 0 0
186 1 1 5.968310365946075 4.258653494444203 3.5613341194970425 0.47272462440966867 0 0 0
107 1 1 5.968310365946075 5.278876880002802 3.2004985992087 0.0741544818991387 0 0 0
123 1 1 5.968310365946075 10.444084600919709 3.515967059418899 0.18728784952378627 0 0 0
140 1 1 5.968310365946075 15.185162318618115 3.563412408998625 0.2872089234358141 0 0 0
159 1 1 5.968310365946075 18.464637525056055 3.1904403031570165 0.026601677166079044 0 0 0
164 1 1 5.968310365946075 21.078861838260966 3.2927764558459196 0.432470685477424 0 0 0
168 1 1 5.968310365946075 22.18773732906977 3.410133586023576 0.5778408449325073 0 0 0
182 1 1 5.968310365946075 3.151658879628894 3.836508445726671 0.5948916146724312 0 0 0
197 1 1 5.968310365946075 7.3854015231954495 3.78326677712956 0.3123853611043533 0 0 0
217 1 1 5.968310365946075 12.565731362635313 3.8323905135148304 0.11589358190758844 0 0 0
228 1 1 5.968310365946075 14.152622564321435 4.048773913259246 0.47724690019971916 0 0 0
230 1 1 5.968310365946075 16.36665967633707 3.920553704270458 0.6623623903569235 0 0 0
237 1 1 5.968310365946075 18.372977589395223 4.19668335523956 0.6686441032295265 0 0 0
241 1 1 5.968310365946075 19.632943005650404 3.971593609733676 0.30796554284959127 0 0 0
176 1 1 5.968310365946075 1.7549878651708508 4.825215328952105 0.1222860497727457 0 0 0
194 1 1 5.968310365946075 6.0466667909176595 4.455750232806087 0.023090813585779718 0 0 0
206 1 1 5.968310365946075 9.861429825334925 4.907207698846966 0.6959660560602798 0 0 0
225 1 1 5.968310365946075 15.264071871809872 4.675182248229737 0.29164453497905674 0 0 0
233 1 1 5.968310365946075 17.340005624869303 4.782519162750071 0.112018281364055 0 0 0
246 1 1 5.968310365946075 21.613316265550928 4.519524639947326 0.6443583305879296 0 0 0
257 1 1 5.968310365946075 1.0053181464089789 5.643165002924618 0.3802472425401735 0 0 0
192 1 1 5.968310365946075 5.990614361343682 5.464769797781517 0.6504867721081603 0 0 0
198 1 1 5.968310365946075 7.859873476026164 5.15765091157171 0.04193164933693335 0 0 0
203 1 1 5.968310365946075 8.778993500791971 5.196240573552124 0.6482728445182703 0 0 0
211 1 1 5.968310365946075 11.403674003512732 5.058213975027642 0.3805339238232562 0 0 0
297 1 1 5.968310365946075 12.469437080974945 5.696542850923258 0.3782372553520321 0 0 0
223 1 1 5.968310365946075 14.231284124443588 5.072122925790373 0.04194614918496986 0 0 0
231 1 1 5.968310365946075 16.30524267626998 5.6000415014402565 0.29109472494522676 0 0 0
239 1 1 5.968310365946075 17.50206133550933 5.659273298035666 0.6821961735361662 0 0 0
243 1 1 5.968310365946075 18.74992020891516 5.181763718601694 0.39617867203438845 0 0 0
333 1 1 5.968310365946075 22.057243196154086 5.721955069610402 0.4665716405449931 0 0 0
253 1 1 5.968310365946075 0.15195766565225513 6.375688048653376 0.16578364951118485 0 0 0
179 1 1 5.968310365946075 2.062181069033686 6.095156587626559 0.4498070596463895 0 0 0
195 1 1 5.968310365946075 6.98093718001107 5.922487848645243 0.5958024158244701 0 0 0
293 1 1 5.968310365946075 11.2917544038328 6.3031073949178165 0.05606914893780868 0 0 0
8701 1 1 5.968310365946075 18.317651523274467 6.224562777061502 0.1650808205100106 0 0 1
325 1 1 5.968310365946075 19.367219299066868 6.478583959444367 0.37919650092038587 0 0 0
329 1 1 5.968310365946075 21.227631816229962 6.377492706478856 0.11772458254604774 0 0 0
261 1 1 5.968310365946075 1.2843224384127132 6.8936876106795975 0.5437786551150748 0 0 0
265 1 1 5.968310365946075 2.2670366673490183 7.128362413893615 0.047358182711018236 0 0 0
185 1 1 5.968310365946075 3.1975405424279577 6.5496694265115245 0.5227534552165267 0 0 0
273 1 1 5.968310365946075 4.2411983467026575 7.000649032031087 0.5250090067689144 0 0 0
277 1 1 5.968310365946075 5.476738453187734 6.6721093309534485 0.108452375715258 0 0 0
289 1 1 5.968310365946075 10.015860082087954 6.613533762047851 0.25507870085035617 0 0 0
8687 1 1 5.968310365946075 13.6585437210291 7.099003051747497 0.09119379628949577 0 0 1
317 1 1 5.968310365946075 16.64767624517084 6.678321197804132 0.4088544945106626 0 0 0
335 1 1 5.968310365946075 22.203845457931223 6.871723695846095 0.3053341562982719 0 0 0
279 1 1 5.968310365946075 5.26460555828974 7.861104034092689 0.11758975146818067 0 0 0
278 1 1 5.968310365946075 6.350233058275113 7.589264692304081 0.3516955233362772 0 0 0
295 1 1 5.968310365946075 10.280182788231777 7.6554759006561275 0.4104110507890507 0 0 0
299 1 1 5.968310365946075 11.548050156385788 7.350361640340614 0.36822067372520195 0 0 0
326 1 1 5.968310365946075 21.265875825599164 7.406888109789113 0.35233247034293474 0 0 0
262 1 1 5.968310365946075 2.1323675531610897 8.070391649546833 0.6669264443957486 0 0 0
267 1 1 5.968310365946075 3.262702856865552 7.977049431960195 0.6424498316226286 0 0 0
291 1 1 5.968310365946075 9.195614268255973 8.193149746608574 0.5269669204430105 0 0 0
403 1 1 5.968310365946075 12.016645366826067 8.515362746590505 0.46697458628307864 0 0 0
315 1 1 5.968310365946075 15.038792243891205 8.176850792030812 0.5046189639470713 0 0 0
8831 1 1 5.968310365946075 20.432225683259748 8.106029442705996 0.41972293374417335 0 0 1
458 1 1 5.968310365946075 22.65756122054327 8.358109007580797 0.6884256330984349 0 0 0
280 1 1 5.968310365946075 6.36309098673937 8.690329592097413 0.6308868294510217 0 0 0
373 1 1 5.968310365946075 7.255695747504806 9.076655618515753 0.0650269419351977 0 0 0
380 1 1 5.968310365946075 8.376447252304315 9.058044838023854 0.574228663263592 0 0 0
292 1 1 5.968310365946075 10.090220252227592 8.744468919762472 0.6629829494021922 0 0 0
409 1 1 5.968310365946075 13.10206938552727 8.913834952383192 0.451315436101093 0 0 0
421 1 1 5.968310365946075 14.206477869341892 8.954378549233724 0.22787923103067434 0 0 0
339 1 1 5.968310365946075 22.947420740569324 9.368946625255196 0.1480365908538157 -1 0 0
351 1 1 5.968310365946075 0.9776333763078459 9.474648361730365 0.39390867264586993 0 0 0
358 1 1 5.968310365946075 1.9673477653923914 9.986641082030426 0.7054369793740054 0 0 0
355 1 1 5.968310365946075 3.726030034188149 10.082984368310814 0.06834852941341081 0 0 0
1249 1 1 5.968310365946075 5.660074645363528 9.518308247401032 0.40758355219167114 0 0 0
381 1 1 5.968310365946075 6.619347360926509 10.018186204671908 0.11220880704986294 0 0 0
394 1 1 5.968310365946075 9.947435783876847 9.861925578816576 0.44512041812499575 0 0 0
398 1 1 5.968310365946075 11.100971242600766 9.39802939540867 0.6498088869490768 0 0 0
405 1 1 5.968310365946075 11.968475166117393 9.91702203827314 0.09521711482323758 0 0 0
8803 1 1 5.968310365946075 15.243763596861605 9.689707105144826 0.10851412974150498 0 0 1
435 1 1 5.968310365946075 16.344884269748153 9.70277416584234 0.2593418608276592 0 0 0
439 1 1 5.968310365946075 17.43089613000802 9.770016122845469 0.4153897372929212 0 0 0
447 1 1 5.968310365946075 19.561011388337906 9.6044282612616 0.2188463719940375 0 0 0
370 1 1 5.968310365946075 4.747021225223576 10.29811215672531 0.14222427279622962 0 0 0
371 1 1 5.968310365946075 5.794676785916625 10.558379097169079 0.6669215021605677 0 0 0
390 1 1 5.968310365946075 8.824815663408629 10.181243856814664 0.5730382615252861 0 0 0
406 1 1 5.968310365946075 10.970035497378491 10.59605114502961 0.5987480324267573 0 0 0
411 1 1 5.968310365946075 13.02062948532471 10.176495391236505 0.34684250357650304 0 0 0
429 1 1 5.968310365946075 15.728966562694673 10.700334627744892 0.33906777645642777 0 0 0
441 1 1 5.968310365946075 18.377004247878254 10.26024699101398 0.16804115983804485 0 0 0
459 1 1 5.968310365946075 21.962353961959543 10.675663501542582 0.29750978343723417 0 0 0
471 1 1 5.968310365946075 0.7950726699880081 11.455976153129377 0.18884727523679012 0 0 0
387 1 1 5.968310365946075 7.872748397062965 10.856749911793232 0.13648126121416201 0 0 0
419 1 1 5.968310365946075 13.851423738522406 11.057257478745026 0.6062913857582215 0 0 0
444 1 1 5.968310365946075 17.96746965788193 11.241719350561121 0.6449202906504873 0 0 0
450 1 1 5.968310365946075 19.086025959634505 10.985923011820939 0.6611337119904324 0 0 0
455 1 1 5.968310365946075 20.84387978557297 11.294342636725778 0.115546238221996 0 0 0
485 1 1 5.968310365946075 4.706118915737021 12.171217981177728 0.3577336152568154 0 0 0
407 1 1 5.968310365946075 12.053032324951745 12.180426837693908 0.19134165203321887 0 0 0
414 1 1 5.968310365946075 12.949440526262402 11.736311554039746 0.6964500681731469 0 0 0
516 1 1 5.968310365946075 14.013260532662231 12.173966925506129 0.7001185207912657 0 0 0
425 1 1 5.968310365946075 14.964868564740879 11.656618558330505 0.5547400786483295 0 0 0
526 1 1 5.968310365946075 15.941471888325648 12.216730056160907 0.6051996972315526 0 0 0
527 1 1 5.968310365946075 16.984166832853703 11.591896566223621 0.3173426058402933 0 0 0
532 1 1 5.968310365946075 18.767264922662353 12.119499377174032 0.5069039525083527 0 0 0
535 1 1 5.968310365946075 19.96982105630528 11.917650955345595 0.4150683344388812 0 0 0
544 1 1 5.968310365946075 22.041419556377733 11.811451905904931 0.5268006859160171 0 0 0
470 1 1 5.968310365946075 0.16697052240295535 12.484487071680645 0.49162507909715875 0 0 0
478 1 1 5.968310365946075 2.5316984393159268 12.56803293230701 0.5190269233256009 0 0 0
490 1 1 5.968310365946075 7.416264444640665 12.842432413403959 0.5475678740264923 0 0 0
497 1 1 5.968310365946075 9.431979114419198 12.74544833689912 0.16827662816498645 0 0 0
503 1 1 5.968310365946075 11.262678540591198 12.963834135834952 0.4863850601609984 0 0 0
507 1 1 5.968310365946075 13.13588469104657 12.671110735212944 0.2152611459199731 0 0 0
519 1 1 5.968310365946075 14.892316717031461 12.821919759932715 0.5638751128439267 0 0 0
531 1 1 5.968310365946075 17.720653292912466 12.411675517569238 0.13261918389836944 0 0 0
552 1 1 5.968310365946075 0.8159571471370608 13.481072863697879 0.3958352761128832 0 0 0
477 1 1 5.968310365946075 2.1953510407663632 13.654074413292474 0.026643809162699577 0 0 0
481 1 1 5.968310365946075 3.2624236187673903 13.351438323927141 0.1031858516118693 0 0 0
486 1 1 5.968310365946075 4.752119751993043 13.353578448893824 0.6358707963185536 0 0 0
489 1 1 5.968310365946075 5.86700746935676 13.009738706337853 0.6474000839417267 0 0 0
571 1 1 5.968310365946075 6.617690712748879 13.691627948894507 0.1453344327924323 0 0 0
493 1 1 5.968310365946075 8.340593784178504 13.32080542611585 0.008418968601538205 0 0 0
502 1 1 5.968310365946075 10.22676494961377 13.502830118098593 0.5932482484947834 0 0 0
525 1 1 5.968310365946075 15.697226897561201 13.376086193275016 0.10668303895391282 0 0 0
537 1 1 5.968310365946075 19.463232071543 13.039729014502134 0.40401759637586226 0 0 0
624 1 1 5.968310365946075 20.90937801788879 13.564881918661793 0.5223978247447194 0 0 0
545 1 1 5.968310365946075 21.955713141251554 13.226289266642883 0.14613121961841963 0 0 0
548 1 1 5.968310365946075 0.0477033019174144 14.291892777804996 0.2329420992038299 0 0 0
568 1 1 5.968310365946075 5.034928491585316 14.41818571752862 0.36802102374851736 0 0 0
575 1 1 5.968310365946075 7.612217623846261 14.108824962659188 0.3887559280056387 0 0 0
505 1 1 5.968310365946075 11.203063347974805 14.159387691422502 0.19786577123439222 0 0 0
615 1 1 5.968310365946075 17.829845470167488 14.178780989101043 0.07666525722470091 0 0 0
619 1 1 5.968310365946075 18.941993790472708 14.105858735528964 0.10253037320429441 0 0 0
562 1 1 5.968310365946075 3.225001020002704 14.694096210376639 0.14656122209644504 0 0 0
574 1 1 5.968310365946075 6.981572404406847 15.012555963709673 0.4178640304228204 0 0 0
588 1 1 5.968310365946075 10.716869379759341 15.012774705526647 0.5950108183223726 0 0 0
592 1 1 5.968310365946075 12.03696342481695 14.883884061687123 0.3985148343844503 0 0 0
601 1 1 5.968310365946075 13.96158138169365 14.477113403242528 0.40451965542046225 0 0 0
610 1 1 5.968310365946075 17.063056958014087 14.855500378850442 0.537036485485301 0 0 0
703 1 1 5.968310365946075 18.524357468084112 15.156504401501776 0.10815632723209907 0 0 0
626 1 1 5.968310365946075 21.035187417101774 14.646006897335896 0.09159263644693016 0 0 0
549 1 1 5.968310365946075 0.5833563967337513 15.52743628237308 0.08128149769942301 0 0 0
578 1 1 5.968310365946075 8.034086946028534 15.36694335909676 0.6069163775109953 0 0 0
685 1 1 5.968310365946075 14.628809807909125 15.511444833616812 0.159317917146319 0 0 0
638 1 1 5.968310365946075 1.2619980588690392 16.489150392597786 0.13679633038459768 0 0 0
648 1 1 5.968310365946075 4.5294015010699065 16.366386255772706 0.008249066462077792 0 0 0
570 1 1 5.968310365946075 6.002496358045013 16.04585200497538 0.3089753943020463 0 0 0
660 1 1 5.968310365946075 8.721758294455016 16.27226083504217 0.6185072064742175 0 0 0
585 1 1 5.968310365946075 10.10468192643001 16.522139347018886 0.044796978080711106 0 0 0
594 1 1 5.968310365946075 12.04218227929627 16.146530973160708 0.07323875537688508 0 0 0
676 1 1 5.968310365946075 13.070459537709857 16.09331860756051 0.5891872079781825 0 0 0
679 1 1 5.968310365946075 14.071934180984961 16.491527056683488 0.26377616965685713 0 0 0
606 1 1 5.968310365946075 16.366405365296018 15.908250273083194 0.6261339516936713 0 0 0
609 1 1 5.968310365946075 17.558200896011623 16.06662116219521 0.3007957338788518 0 0 0
701 1 1 5.968310365946075 19.86259264199333 16.005860882572595 0.22526033296544692 0 0 0
631 1 1 5.968310365946075 22.506444117429336 16.25461659377598 0.35632928055609236 -1 0 0
728 1 1 5.968310365946075 3.605214642671202 16.96235525920494 0.34801046913824035 0 0 0
659 1 1 5.968310365946075 7.213289863658585 17.097172147829404 0.002910895149374919 0 0 0
688 1 1 5.968310365946075 15.755806443580965 16.815411457560284 0.5748602047623214 0 0 0
696 1 1 5.968310365946075 16.965677007646956 16.93558842454354 0.7214089880805487 0 0 0
706 1 1 5.968310365946075 19.25568480989699 17.091528938778612 0.6171996088137145 0 0 0
710 1 1 5.968310365946075 20.361836669078848 17.18116864918054 0.46840315974741653 0 0 0
711 1 1 5.968310365946075 21.711341285754518 17.27030822027116 0.34503898272053934 0 0 0
634 1 1 5.968310365946075 0.8035426151683777 17.667860695917668 0.5072407627633981 0 0 0
719 1 1 5.968310365946075 1.874819771802314 17.53545531585055 0.15808431883427707 0 0 0
723 1 1 5.968310365946075 3.1745573499367437 17.960097817863556 0.007526592150636855 0 0 0
9027 1 1 5.968310365946075 5.786502013721003 17.39511597469387 0.2073665328917227 0 0 1
664 1 1 5.968310365946075 8.534363740756834 17.599727894101296 0.6567148842887344 0 0 0
672 1 1 5.968310365946075 10.47006980157894 17.502833850262988 0.324030254645282 0 0 0
678 1 1 5.968310365946075 12.480912418692725 17.907096979355234 0.6353941190272917 0 0 0
1567 1 1 5.968310365946075 13.615362846989495 17.65431991309477 0.705184277984305 0 0 0
697 1 1 5.968310365946075 17.430254961033917 17.909601523320152 0.5153909949235732 0 0 0
715 1 1 5.968310365946075 22.76763937137115 17.51485111911483 0.053980011539197584 -1 0 0
721 1 1 5.968310365946075 1.4351425192296943 18.66691866067108 0.34699327127691526 0 0 0
9115 1 1 5.968310365946075 4.312585300400997 18.230781925918876 0.4589633582079202 0 0 1
9033 1 1 5.968310365946075 5.5024178401072765 18.511314669607376 0.42574780838377924 0 0 1
662 1 1 5.968310365946075 7.587953266997756 18.18537918078575 0.3986457717690726 0 0 0
669 1 1 5.968310365946075 9.541754802067034 18.3459279687842 0.34466610913142065 0 0 0
682 1 1 5.968310365946075 13.310350612093025 18.515037154602663 0.07223507736563359 0 0 0
784 1 1 5.968310365946075 19.628818099254307 18.179112144833056 0.34406799204510485 0 0 0
709 1 1 5.968310365946075 20.84659373094819 18.26210437756066 0.47691821219249925 0 0 0
795 1 1 5.968310365946075 22.370489139292353 18.38228571696058 0.6549042232489081 0 0 0
803 1 1 5.968310365946075 0.47127670934849847 19.343507595562997 0.47265522239539454 0 0 0
724 1 1 5.968310365946075 2.4457254773768904 19.320417680124525 0.25058175984078795 0 0 0
9109 1 1 5.968310365946075 3.568227860149889 19.136380095742506 0.5125017231604486 0 0 1
745 1 1 5.968310365946075 7.210555212193341 19.209404637436016 0.05332235352919393 0 0 0
755 1 1 5.968310365946075 10.72523734824522 18.806794175457217 0.07891380659774744 0 0 0
759 1 1 5.968310365946075 11.755368980003142 18.829294744965107 0.4191507218211343 0 0 0
765 1 1 5.968310365946075 12.775266902704464 19.461076543322793 0.15770341790540085 0 0 0
772 1 1 5.968310365946075 15.43542912829197 18.95330153358222 0.3099602635460639 0 0 0
775 1 1 5.968310365946075 17.621133065327484 18.995292475873665 0.17057519599898074 0 0 0
786 1 1 5.968310365946075 18.721021458958354 18.926401331027023 0.38114390498989315 0 0 0
807 1 1 5.968310365946075 1.5264535235725942 19.763341831695225 0.6974443427818634 0 0 0
733 1 1 5.968310365946075 4.078860719382216 20.129085758859834 0.6356961103352492 0 0 0
735 1 1 5.968310365946075 5.399837435897768 19.763047544833153 0.1413155459188994 0 0 0
750 1 1 5.968310365946075 8.554968618777023 20.06746292423465 0.2559010138945368 0 0 0
754 1 1 5.968310365946075 9.99002299628278 20.163387328247037 0.5222166498690675 0 0 0
758 1 1 5.968310365946075 11.406492325803166 20.087681006571934 0.306971358597455 0 0 0
855 1 1 5.968310365946075 14.699873587381303 20.02603769048524 0.46668732339037633 0 0 0
778 1 1 5.968310365946075 16.84179408372291 19.83618699153668 0.3643735797381305 0 0 0
879 1 1 5.968310365946075 21.748880923678115 20.136556003332206 0.6291000133983676 0 0 0
804 1 1 5.968310365946075 0.7372250025726399 20.9364165982596 0.5763590346779559 0 0 0
811 1 1 5.968310365946075 2.2003740457202636 20.389592279803058 0.08208319299570843 0 0 0
9199 1 1 5.968310365946075 4.905991285389959 20.810137290890648 0.24793059782428445 0 0 1
742 1 1 5.968310365946075 6.512810431989128 20.331898325038587 0.6964223469679525 0 0 0
847 1 1 5.968310365946075 13.306786558691865 20.591696647933095 0.2498933744410219 0 0 0
863 1 1 5.968310365946075 17.30684123985469 20.85293048772015 0.23265465170263538 0 0 0
871 1 1 5.968310365946075 19.60955849530179 20.856761463176735 0.35987801760080634 0 0 0
793 1 1 5.968310365946075 20.606353625783353 20.346861880145173 0.4799236167002397 0 0 0
808 1 1 5.968310365946075 1.7583825893582703 21.498991876796016 0.19796017837383334 0 0 0
814 1 1 5.968310365946075 2.8339146620935582 21.510615028174364 0.6677222542731783 0 0 0
18 1 1 5.968310365946075 3.9903375938129346 21.665478002040256 0.5283501233149093 0 -1 0
831 1 1 5.968310365946075 8.414849456062333 21.154383179810743 0.018297655302425116 0 0 0
836 1 1 5.968310365946075 10.127275478901582 21.453151167692432 0.46576076921793974 0 0 0
849 1 1 5.968310365946075 12.63638264454161 21.490188874149332 0.4846007153607173 0 0 0
853 1 1 5.968310365946075 14.344501575347635 20.958795573086665 0.01201565477149193 0 0 0
857 1 1 5.968310365946075 15.054140179136803 21.589351292361428 0.6265560396968931 0 0 0
9239 1 1 5.968310365946075 16.21522871962966 21.132505166912733 0.4262841321799531 0 0 1
878 1 1 5.968310365946075 20.81648960865371 21.508434972077342 0.2664932784758497 0 0 0
881 1 1 5.968310365946075 22.130816745254425 21.27663661491509 0.19280836141224333 0 0 0
806 1 1 5.968310365946075 1.032056775715567 22.167339733275757 0.6509964603752152 0 0 0
825 1 1 5.968310365946075 5.095714454882047 21.867773193915188 0.5304663425603174 0 0 0
822 1 1 5.968310365946075 6.505848872093124 22.164213041587335 0.6527741931924027 0 0 0
829 1 1 5.968310365946075 7.601480834571644 21.878937994294315 0.5265006515859498 0 0 0
833 1 1 5.968310365946075 8.676379157824872 22.2400497223998 0.45589564059040166 0 0 0
854 1 1 5.968310365946075 13.715780814383896 21.76774054402242 0.5608186368943061 0 0 0
861 1 1 5.968310365946075 16.00956395333581 22.31506734049328 0.5788386244103227 0 0 0
873 1 1 5.968310365946075 19.138658947808487 21.835763293752926 0.637535948801287 0 0 0
78 1 1 5.968310365946075 21.894839283176882 22.380353953370996 0.38068036000376476 0 -1 0
800 1 1 5.968310365946075 22.974270579759587 21.941065909119835 0.3408762631910816 -1 0 0
810 1 1 5.968310365946075 3.0259046691480194 22.956153130308188 0.5934509772869899 0 0 0
17 1 1 5.968310365946075 4.520833048803086 22.711449120509304 0.39241093933248783 0 -1 0
21 1 1 5.968310365946075 5.791046037549253 23.045366682907538 0.44672467320400744 0 -1 0
841 1 1 5.968310365946075 10.524501665516164 22.47366199695072 0.032190995209224575 0 0 0
50 1 1 5.968310365946075 13.616093542560483 22.925093060349532 0.0656002319743961 0 -1 0
53 1 1 5.968310365946075 14.961057736256704 22.6979840835519 0.23700205264059557 0 -1 0
869 1 1 5.968310365946075 18.069533669699297 22.530132463299232 0.39284607045133163 0 0 0
73 1 1 5.968310365946075 19.48560550950577 22.768250275818676 0.2359112631447763 0 -1 0
77 1 1 5.968310365946075 20.545999839721482 22.543219636115342 0.5342120157520499 0 -1 0
801 1 1 5.968310365946075 23.01275016160483 23.091383093178838 0.4894876993872643 -1 0 0
887 1 1 5.968310365946075 1.5478010510530207 0.09268710327476913 1.3403493537971352 0 0 0
22 1 1 5.968310365946075 4.882971137841717 0.3498335143772897 1.1916368358353473 0 0 0
26 1 1 5.968310365946075 6.873893053978366 0.12461268644528434 0.9491244902985827 0 0 0
30 1 1 5.968310365946075 7.875662232679895 0.6837939657353547 1.3626035536535805 0 0 0
34 1 1 5.968310365946075 8.80852067466279 0.0810746926296792 1.0723899374783348 0 0 0
38 1 1 5.968310365946075 10.05288731207461 0.3376096144977516 1.2659067350195063 0 0 0
42 1 1 5.968310365946075 11.17613377712577 0.1895996044559404 0.9405161464347762 0 0 0
46 1 1 5.968310365946075 12.315457847694125 0.3317987494025554 1.3743697317095929 0 0 0
51 1 1 5.968310365946075 13.337875090723076 0.5621984185510566 0.8637398706350753 0 0 0
60 1 1 5.968310365946075 15.310344779495619 0.44663107875999264 1.4188519186127926 0 0 0
70 1 1 5.968310365946075 18.06489516808441 0.08072204050581545 1.3879454808063447 0 0 0
75 1 1 5.968310365946075 19.299432491507325 0.5458925210659544 1.1641485352156595 0 0 0
4 1 1 5.968310365946075 22.382332394724724 0.2886422453501513 1.3792892730391697 -1 0 0
2 1 1 5.968310365946075 0.14089411406110264 0.9389689887059001 1.3730640528804925 0 0 0
10 1 1 5.968310365946075 1.3533166442397426 1.1724092299946884 0.8760435111790222 0 0 0
975 1 1 5.968310365946075 2.3709392293344256 0.9526079563361456 1.2458456953508878 0 0 0
897 1 1 5.968310365946075 3.50029772586199 0.7891456565242039 0.7923463317461921 0 0 0
98 1 1 5.968310365946075 4.836644513393806 1.431308056892388 0.9709612527443204 0 0 0
27 1 1 5.968310365946075 6.917636888549093 1.2191673652080242 0.9545469860601559 0 0 0
64 1 1 5.968310365946075 16.548052381321554 1.0032236971037185 1.1089161416123778 0 0 0
94 1 1 5.968310365946075 1.8738096329606908 2.139861948033023 0.8523302821221124 0 0 0
979 1 1 5.968310365946075 3.196842236433383 2.1308615299312286 1.414735134217381 0 0 0
105 1 1 5.968310365946075 5.958489892524862 1.6613832947033302 1.320203667425195 0 0 0
995 1 1 5.968310365946075 7.716241688627728 1.92816896376346 1.1676502061948957 0 0 0
127 1 1 5.968310365946075 11.641394850616518 2.0233200636549356 0.8000938582025829 0 0 0
52 1 1 5.968310365946075 12.605836019208894 1.6217186066854172 1.0736588588083107 0 0 0
141 1 1 5.968310365946075 14.873689495126673 1.5358419854810685 1.1837561078628052 0 0 0
146 1 1 5.968310365946075 16.28966163390522 2.1459220796500027 1.3762980935559914 0 0 0
79 1 1 5.968310365946075 20.00490582369762 1.5320464715450526 0.8488565666593421 0 0 0
967 1 1 5.968310365946075 23.01490373735078 2.1470317637683594 1.1926483270613712 -1 0 0
110 1 1 5.968310365946075 6.689008066261379 2.5140618474516168 1.0031145039373135 0 0 0
118 1 1 5.968310365946075 8.765375990723756 2.2198880789476587 1.104329965343027 0 0 0
122 1 1 5.968310365946075 10.526983999637 2.4841297969371947 0.7537724740161711 0 0 0
1021 1 1 5.968310365946075 13.363511105140189 2.4768027885692225 1.1884742459010469 0 0 0
158 1 1 5.968310365946075 19.152640750338087 2.633906881562754 0.8764828391783215 0 0 0
162 1 1 5.968310365946075 20.748804005199812 2.551048626175454 1.2387444205893159 0 0 0
166 1 1 5.968310365946075 21.93424881363569 2.251842871466109 1.0294370012445433 0 0 0
973 1 1 5.968310365946075 0.11092244095360101 3.215303930627904 1.182036434660172 0 0 0
100 1 1 5.968310365946075 2.6434223792347256 2.970056802354018 1.0709400367834467 0 0 0
103 1 1 5.968310365946075 5.5217081215251245 2.9709861848004966 1.135593451749866 0 0 0
113 1 1 5.968310365946075 7.711083279424518 3.0139080609643507 1.058282423749078 0 0 0
117 1 1 5.968310365946075 8.746429682090158 3.3716062108772697 0.7929562740614831 0 0 0
213 1 1 5.968310365946075 11.277459344002914 3.3673292747667056 0.9368292030149363 0 0 0
132 1 1 5.968310365946075 12.327257817551196 3.060966648246004 1.0235819983072094 0 0 0
136 1 1 5.968310365946075 13.321280107355168 3.5432775220619375 1.0439382855438213 0 0 0
148 1 1 5.968310365946075 15.670056707789554 3.2473377841779647 1.24366685435483 0 0 0
155 1 1 5.968310365946075 18.15714293231356 3.206607938396759 1.2068670570822906 0 0 0
1045 1 1 5.968310365946075 20.242721410702924 3.5846281565850555 1.3978297623113276 0 0 0
1059 1 1 5.968310365946075 0.8572306520506029 4.018283024419775 0.8159324335803378 0 0 0
177 1 1 5.968310365946075 2.0328396728168245 4.007055464292933 0.8885417249478342 0 0 0
190 1 1 5.968310365946075 4.991676261485906 4.0192357907496055 1.1423047042152055 0 0 0
111 1 1 5.968310365946075 6.1786683738527115 3.8317239413995554 0.9206220429169837 0 0 0
201 1 1 5.968310365946075 8.13390788882012 4.269101748628843 0.9914656902093851 0 0 0
209 1 1 5.968310365946075 9.738793659086925 3.8460672370103346 1.1199923843007662 0 0 0
216 1 1 5.968310365946075 11.863662949344778 4.275286378346526 0.9638530576963906 0 0 0
226 1 1 5.968310365946075 14.999950530860259 4.179143891168679 1.2959298609061507 0 0 0