ITEM: TIMESTEP
0
ITEM: NUMBER OF ATOMS
16
ITEM: BOX BOUNDS pp pp pp
-2.0000000000000000e+01 2.0000000000000000e+01
-2.0000000000000000e+01 2.0000000000000000e+01
-2.0000000000000000e+01 2.0000000000000000e+01
ITEM: ATOMS id mol type x y z ix iy iz vx vy vz c_quat[1] c_quat[2] c_quat[3] c_quat[4] angmomx angmomy angmomz
1 1 1 -6.133472972454725e-01 -6.574781716697660e-01  3.606522635120190e-01 0 0 0  5.386890022865587e-02  2.262922525602673e-02  2.488229114473675e-01  9.964752158482045e-01 -5.325355573323980e-02  1.139116380710251e-02 -6.380787090289707e-02  1.772010258006941e-01 -2.958853170000101e-01 -2.624137503614725e-01
2 1 2 -4.526276424735636e-01 -1.003065053434591e+00  7.258693379233347e-01 0 0 0 -3.995003075629463e-02  2.696951106370198e-01 -1.898645454819566e-01  9.369923833143513e-01  1.122071604464856e-01  6.732538499716349e-02  3.239168400846305e-01 -3.061453937596818e-02 -1.176951893148060e-01  4.007470242647321e-02
3 1 3 -9.883421085226410e-02 -1.239775807128057e+00  1.069462285786363e+00 0 0 0 -2.078453529520138e-01 -1.362872235767304e-01 -6.062477950201746e-02  7.979649320918270e-01  1.447309635452787e-01  1.837414269936639e-01  5.554673737937029e-01 -3.676034584820381e-02 -6.308707793373186e-02 -1.479860157608762e-01
4 1 4  2.937771854299732e-01 -1.257975092489984e+00  1.425891608660697e+00 0 0 0 -2.396982418131700e-01 -5.624721730878831e-01  3.247442290503672e-02  5.660864821344559e-01  1.468827549948105e-01  9.873742533340191e-02  8.051226439917721e-01 -1.652364596501651e-01  2.860623077030974e-01  3.354351975310588e-01
5 1 1  6.286896795685137e-01 -1.018334339511974e+00  1.768934633967282e+00 0 0 0 -1.611489735682835e-01 -2.288969747076015e-01 -1.355332496264956e-01  2.533023785125306e-01  1.206231316167983e-01  8.583012223905846e-02  9.559922359911086e-01  7.151030852881342e-02 -9.415592891043179e-02  1.342288153931229e-01
6 1 2  7.901522619067926e-01 -6.766341805565266e-01  2.154016070549575e+00 0 0 0 -4.701706588477693e-02  1.921671558511004e-01  1.458824279129722e-01 -3.855807343534716e-02  8.405913137017908e-02  2.236505169306371e-02  9.954632800204194e-01  9.218622989776322e-02 -5.640128930702024e-01  9.287105657777776e-02
7 1 3  7.115777184886863e-01 -4.019557932514345e-01  2.569568683291525e+00 0 0 0  5.098438305112513e-02 -3.845955552200959e-02 -1.424419628574967e-01 -4.559284433024802e-01  1.004550065061007e-01 -5.252474529475878e-02  8.827679181910482e-01  3.479046835475834e-01  4.244922695910593e-01 -1.358288260435836e-01
8 1 4  4.697331037700523e-01 -3.025169796710703e-01  3.066800711751922e+00 0 0 0  3.782797134841193e-01 -4.953992506010833e-02  1.626392045834847e-01  7.680212215404908e-01 -9.582139884533597e-03  3.658677589040892e-02 -6.393066507464399e-01  4.428876596361290e-02  7.868414126013584e-02 -1.271360044432503e-01
9 2 1  4.056113349449848e-01 -1.443775499211898e+00  3.059072650334112e+00 0 0 0  4.912038408665491e-02  4.126064731871670e-02  1.222385633449523e-02 -2.329997575451234e-01  6.886863952313410e-01  6.747873944883376e-01 -1.268232401684158e-01  3.282916621721876e-02 -1.267054709525600e-04  1.559787854176960e-01
10 2 2 -3.202842905928752e-02 -1.294752097116472e+00  2.720107115139219e+00 0 0 0  1.939216183073483e-01  1.107523548538194e-01 -4.050505160199710e-02 -2.466206187190723e-01  8.744456399178389e-01  3.937083608782400e-01 -1.397026120939516e-01 -1.700813500181381e-01 -4.563093565840761e-01 -3.031851362703951e-01
11 2 3 -3.161385511231407e-01 -9.084141759061610e-01  2.412520787178201e+00 0 0 0 -3.513607339206460e-01 -1.882241906753569e-01  3.614793819905130e-01 -8.747590085090901e-02  9.773676023882290e-01  1.449354911309558e-01 -1.268630757266878e-01 -3.708221604627426e-01 -4.910838182594122e-01  9.435948331955418e-02
12 2 4 -3.893939125182100e-01 -4.866605488242819e-01  2.006177777000426e+00 0 0 0 -1.188642917357977e-01  2.235528245655188e-01  9.265586122144348e-03 -3.181169300779214e-02  9.634374984140114e-01 -2.442360692534372e-01 -1.054748563087919e-01 -2.823010018885836e-01  1.027648566082889e-01  1.017523347678070e-01
13 3 1 -6.232643040853296e-02 -7.155965522127403e-02  1.559320605273073e+00 0 0 0 -1.446616296238799e-01 -1.155205990978724e-01  1.331477187595642e-01 -3.278607069657226e-02  7.922941528811774e-01 -6.084214170523914e-01 -3.191282109962716e-02 -2.549872189037434e-01  2.754663721641154e-01  5.806416868630132e-02
14 3 2  1.788409039091338e-01 -5.516721349427172e-02  1.021273149730912e+00 0 0 0  5.154712003586254e-02 -3.661102651077563e-01 -6.630782880801242e-02  4.718868628834144e-02  6.316396208287697e-01 -7.737349519945346e-01  1.178309584462780e-02 -1.199984717331652e-01  6.844768922886051e-02  2.161595932308759e-01
15 3 3  4.513439961906000e-01 -2.379560738327457e-01  5.957328539615993e-01 0 0 0 -2.021424496209139e-01  2.334122693355961e-01  8.133374252278069e-03 -5.869980642620334e-02 -3.422935820341442e-01  9.376740835056506e-01  1.251996587850869e-02 -1.701391112413525e-01  1.870292260510287e-02 -2.682954134361106e-01
16 3 4  5.077649359807965e-01 -5.565625134533538e-01  1.655875784458841e-01 0 0 0 -1.920213116286801e-01 -8.105295741355378e-02 -4.693508108850740e-02 -8.582818143150042e-02  8.707732197394232e-04  9.939540921464659e-01 -6.846917358531610e-02  1.733210765264759e-02 -3.287658886280769e-01  1.085334141225924e-01
ITEM: TIMESTEP
1000
ITEM: NUMBER OF ATOMS
16
ITEM: BOX BOUNDS pp pp pp
-2.0000000000000000e+01 2.0000000000000000e+01
-2.0000000000000000e+01 2.0000000000000000e+01
-2.0000000000000000e+01 2.0000000000000000e+01
ITEM: ATOMS id mol type x y z ix iy iz vx vy vz c_quat[1] c_quat[2] c_quat[3] c_quat[4] angmomx angmomy angmomz
1 1 1 -6.128472925723248e-01 -6.573225721493603e-01  3.630353643107415e-01 0 0 0  4.601239922594701e-02  8.611525099126948e-03  2.272968193800761e-01  9.964163488534136e-01 -5.087342134883421e-02  8.533089324205640e-03 -6.703388042237614e-02  1.969940314978432e-01 -2.556047561629985e-01 -2.759181097406317e-01
2 1 2 -4.530512107715514e-01 -1.000395613794366e+00  7.239451814520446e-01 0 0 0 -4.470370404374899e-02  2.638976220694432e-01 -1.944273188504770e-01  9.369878527260038e-01  1.113570823672001e-01  6.631644816701318e-02  3.244310292698420e-01 -4.461859981091797e-02 -1.052137270099635e-01  3.406283652178606e-02
3 1 3 -1.009391084052771e-01 -1.241073870253717e+00  1.069013748824936e+00 0 0 0 -2.131357375072555e-01 -1.232374724007277e-01 -2.903079880202501e-02  7.991146953916733e-01  1.444525075104914e-01  1.828393752147049e-01  5.541831281752461e-01  1.525745449937893e-02 -9.352349292506164e-02 -1.551542201369073e-01
4 1 4  2.914197410661708e-01 -1.263561156268257e+00  1.426102415722321e+00 0 0 0 -2.318329549970389e-01 -5.545874541136825e-01  9.765039372528402e-03  5.629439317361672e-01  1.478896533840954e-01  1.028352083132582e-01  8.066273613475596e-01 -2.033343084191187e-01  2.742113504504387e-01  3.405333523030455e-01
5 1 1  6.271153206278509e-01 -1.020636492770709e+00  1.767571722991217e+00 0 0 0 -1.537380302539495e-01 -2.314337255814813e-01 -1.366289565986998e-01  2.518488594567000e-01  1.196972403672957e-01  8.494508734774495e-02  9.565715105387037e-01  7.422583340882505e-02 -8.897837833783220e-02  1.286349666875241e-01
6 1 2  7.896862882079752e-01 -6.747546514487086e-01  2.155514473198911e+00 0 0 0 -4.614349771911103e-02  1.834825174685465e-01  1.538976400608523e-01 -3.965596062813319e-02  7.766315016199569e-02  2.165427553320667e-02  9.959552862677659e-01  9.169021579910885e-02 -5.416419114073490e-01  1.083856826898017e-01
7 1 3  7.121132758862538e-01 -4.023105866964057e-01  2.568242141421216e+00 0 0 0  5.615075780847982e-02 -3.244917862913827e-02 -1.226507951260783e-01 -4.547257753311826e-01  1.028945643813479e-01 -5.834003935532740e-02  8.827421014533332e-01  3.310621814403389e-01  4.232114339905229e-01 -1.260512752655486e-01
8 1 4  4.735562687446515e-01 -3.030342292810216e-01  3.068380464618981e+00 0 0 0  3.863394238794522e-01 -5.390245581998532e-02  1.532866082135572e-01  7.670555685758218e-01 -9.741456316812407e-03  3.766862207751621e-02 -6.403998232795132e-01  4.629879188744083e-02  8.802438743030278e-02 -1.272634018380254e-01
9 2 1  4.060580745044375e-01 -1.443364035922124e+00  3.059118608120843e+00 0 0 0  4.021310327761505e-02  4.105887824809484e-02 -3.083950368975611e-03 -2.329561363131268e-01  6.873775371655604e-01  6.760954893079597e-01 -1.270371964886630e-01  1.876787125259127e-02 -3.590219138593618e-03  1.640815484900467e-01
10 2 2 -3.007724209086745e-02 -1.293601199265424e+00  2.719721260315952e+00 0 0 0  1.962073562257916e-01  1.193832301195591e-01 -3.665468898630297e-02 -2.431948241198628e-01  8.770030163008938e-01  3.917691297824081e-01 -1.350516044702093e-01 -1.897284573414444e-01 -4.649755106881564e-01 -2.832796707661392e-01
11 2 3 -3.196952719167534e-01 -9.102464084460297e-01  2.416117637040001e+00 0 0 0 -3.598321141462037e-01 -1.780454755739889e-01  3.572432438806020e-01 -8.244286849435924e-02  9.782808970821985e-01  1.458717896193287e-01 -1.220290163515432e-01 -3.567885146381680e-01 -4.919084877396379e-01  7.935926886396037e-02
12 2 4 -3.906037600903422e-01 -4.845027218063974e-01  2.006357303101921e+00 0 0 0 -1.230631948748077e-01  2.078448934957808e-01  2.662545804805623e-02 -2.828249212862398e-02  9.636946344466135e-01 -2.434965349925892e-01 -1.058403969399458e-01 -2.817886877351907e-01  9.976187609052001e-02  1.000623449598518e-01
13 3 1 -6.374713059320064e-02 -7.274425455434248e-02  1.560531892104588e+00 0 0 0 -1.394426665621200e-01 -1.214709202853621e-01  1.089671806350642e-01 -2.859028438408841e-02  7.927009666413501e-01 -6.080568500340430e-01 -3.278170604748197e-02 -2.317518272463167e-01  2.843419116557747e-01  6.349351568230900e-02
14 3 2  1.793912894097920e-01 -5.884542907952776e-02  1.020703054021864e+00 0 0 0  5.844123180764909e-02 -3.693647255253283e-01 -4.771282828019136e-02  4.866098695799132e-02  6.335423372126084e-01 -7.720748667616432e-01  1.251460836186653e-02 -1.280047859190342e-01  6.693982542455154e-02  2.255536241054704e-01
15 3 3  4.493474615683241e-01 -2.355980477587959e-01  5.958377570510283e-01 0 0 0 -1.971384662299742e-01  2.380106982145462e-01  1.274796637258737e-02 -5.958304018442345e-02 -3.392413137135081e-01  9.387481221007977e-01  1.082384610664858e-02 -1.926566186912304e-01  1.997024463502546e-02 -2.744814520200584e-01
16 3 4  5.058340137791566e-01 -5.573374770642829e-01  1.651380414905499e-01 0 0 0 -1.940850280985517e-01 -7.385800474330706e-02 -4.282877783101932e-02 -8.199385495721262e-02 -6.989115265820894e-05  9.942863963484019e-01 -6.834884710798804e-02  2.082647478037149e-02 -3.280701543104683e-01  9.802240109462095e-02
ITEM: TIMESTEP
2000
ITEM: NUMBER OF ATOMS
16
ITEM: BOX BOUNDS pp pp pp
-2.0000000000000000e+01 2.0000000000000000e+01
-2.0000000000000000e+01 2.0000000000000000e+01
-2.0000000000000000e+01 2.0000000000000000e+01
ITEM: ATOMS id mol type x y z ix iy iz vx vy vz c_quat[1] c_quat[2] c_quat[3] c_quat[4] angmomx angmomy angmomz
1 1 1 -6.124293759990160e-01 -6.573033022811380e-01  3.651879986631233e-01 0 0 0  3.745829262754657e-02 -4.615514461018180e-03  2.027121860291139e-01  9.963309460310821e-01 -4.829743869534543e-02  6.176189332402012e-03 -7.038364924901654e-02  2.165958840502263e-01 -2.122983845871025e-01 -2.888940329602371e-01
2 1 2 -4.535201439945711e-01 -9.977929579004421e-01  7.219923353973622e-01 0 0 0 -4.898665458774204e-02  2.563446743751153e-01 -1.955305148375792e-01  9.370144089111011e-01  1.104167371467597e-01  6.546606792775014e-02  3.248481731531246e-01 -5.595328200501378e-02 -9.547689167693546e-02  2.658277464268905e-02
3 1 3 -1.030969923609067e-01 -1.242238948892641e+00  1.068882013458562e+00 0 0 0 -2.184458406319994e-01 -1.097064849188323e-01  2.666588298361857e-03  8.002794152069908e-01  1.444714248695607e-01  1.813174841454869e-01  5.529962341058636e-01  6.700821381236975e-02 -1.235245868256853e-01 -1.609111442667959e-01
4 1 4  2.891396261662668e-01 -1.269063688423310e+00  1.426089226583787e+00 0 0 0 -2.242369940360584e-01 -5.457566222247943e-01 -1.224933921000941e-02  5.598216488944904e-01  1.485336339646005e-01  1.072023326116840e-01  8.081120843626447e-01 -2.393742207365281e-01  2.616941941345240e-01  3.440272770516575e-01
5 1 1  6.256144697157718e-01 -1.022960977174389e+00  1.766210218400298e+00 0 0 0 -1.464620225498030e-01 -2.333593965469260e-01 -1.352774147784137e-01  2.504392091201421e-01  1.188545209989378e-01  8.403814585337377e-02  9.571266349939896e-01  7.750282202562302e-02 -8.145548052323297e-02  1.241856594952765e-01
6 1 2  7.892300585453822e-01 -6.729694903322014e-01  2.157095779490799e+00 0 0 0 -4.507009070092811e-02  1.733099729599314e-01  1.624390462156170e-01 -4.092823792427762e-02  7.154417628291648e-02  2.095569352716449e-02  9.963770215582093e-01  9.025462499100205e-02 -5.145274606049584e-01  1.226967510750697e-01
7 1 3  7.127009576561755e-01 -4.026038010967800e-01  2.567119437790303e+00 0 0 0  6.138363093708712e-02 -2.614601537729224e-02 -1.017284319100522e-01 -4.535912606695085e-01  1.054109539428675e-01 -6.395359933644244e-02  8.826400377079064e-01  3.128780550243797e-01  4.209751776986989e-01 -1.149665210351614e-01
8 1 4  4.774596373062451e-01 -3.035948230804274e-01  3.069866135366919e+00 0 0 0  3.943226974990207e-01 -5.820335913697968e-02  1.438410937202327e-01  7.660825895348904e-01 -9.950618744419654e-03  3.884918777117446e-02 -6.414898220608335e-01  4.862925961716578e-02  9.746923053743881e-02 -1.273591603251601e-01
9 2 1  4.064153678145789e-01 -1.442953798246380e+00  3.059010143065392e+00 0 0 0  3.123714145460726e-02  4.101406724946104e-02 -1.863994595757090e-02 -2.327607416481656e-01  6.860494308918563e-01  6.774512829512003e-01 -1.273513829847520e-01  4.732787095419591e-03 -7.510221203157105e-03  1.713733709290269e-01
10 2 2 -2.810649187640468e-02 -1.292365438758289e+00  2.719374298654153e+00 0 0 0  1.978301547193473e-01  1.277122193816888e-01 -3.272141330847345e-02 -2.394909287637043e-01  8.794949255199841e-01  3.900143844476847e-01 -1.304666660430533e-01 -2.099026111583421e-01 -4.714657497953928e-01 -2.612677582570511e-01
11 2 3 -3.233320365898756e-01 -9.119717749696438e-01  2.419653003909709e+00 0 0 0 -3.673562543067079e-01 -1.668733991853130e-01  3.492148552452600e-01 -7.758502486962938e-02  9.791558629692757e-01  1.466467902734521e-01 -1.171711518735149e-01 -3.432668771280992e-01 -4.875775779080936e-01  6.380639172073541e-02
12 2 4 -3.918542770360661e-01 -4.825069251313151e-01  2.006709551252166e+00 0 0 0 -1.269925544398723e-01  1.911545643620871e-01  4.376561901975225e-02 -2.477190230447560e-02  9.639380186274735e-01 -2.427695702949322e-01 -1.061733716125275e-01 -2.807099333762660e-01  9.687162324478808e-02  9.855396585610846e-02
13 3 1 -6.511452088518839e-02 -7.399039796790058e-02  1.561497502123891e+00 0 0 0 -1.339948093403883e-01 -1.278181878949803e-01  8.405272512674529e-02 -2.454789604979016e-02  7.931194083670915e-01 -6.076265393025833e-01 -3.389680819973487e-02 -2.074991727037108e-01  2.928115199746331e-01  6.873707432739189e-02
14 3 2  1.800077623758238e-01 -6.255107273350803e-02  1.020318426312831e+00 0 0 0  6.474566705934434e-02 -3.715886926561986e-01 -2.925750853721197e-02  5.017169410589569e-02  6.355157201671808e-01 -7.703407844780408e-01  1.332840203066316e-02 -1.347976116061966e-01  6.530853451072612e-02  2.343966105799005e-01
15 3 3  4.474015619411010e-01 -2.331996888861534e-01  5.959859062920025e-01 0 0 0 -1.920338388175837e-01  2.414604708547792e-01  1.679141080586952e-02 -6.055965217603770e-02 -3.361075129701253e-01  9.398324731006202e-01  8.898918975176065e-03 -2.138897474731720e-01  2.050606060790735e-02 -2.796697862747737e-01
16 3 4  5.038847807556094e-01 -5.580381351093354e-01  1.647336830510384e-01 0 0 0 -1.956853051278969e-01 -6.620178403139981e-02 -3.791834525435533e-02 -7.818647792617883e-02 -8.895999151268914e-04  9.946041694299784e-01 -6.818085826676960e-02  2.368240906966113e-02 -3.253542821685887e-01  8.660394498515317e-02
ITEM: TIMESTEP
3000
ITEM: NUMBER OF ATOMS
16
ITEM: BOX BOUNDS pp pp pp
-2.0000000000000000e+01 2.0000000000000000e+01
-2.0000000000000000e+01 2.0000000000000000e+01
-2.0000000000000000e+01 2.0000000000000000e+01
ITEM: ATOMS id mol type x y z ix iy iz vx vy vz c_quat[1] c_quat[2] c_quat[3] c_quat[4] angmomx angmomy angmomz
1 1 1 -6.121002853775882e-01 -6.574118758580763e-01  3.670791716265627e-01 0 0 0  2.825749538565816e-02 -1.694194997721996e-02  1.749999656902660e-01  9.962198212472265e-01 -4.553255563417145e-02  4.354941329728581e-03 -7.385044764644115e-02  2.359752208294162e-01 -1.659841478898505e-01 -3.012156562711949e-01
2 1 2 -4.540287053720380e-01 -9.952743647041102e-01  7.200473543473445e-01 0 0 0 -5.259971446381073e-02  2.471003557711819e-01 -1.928037294015527e-01  9.370765562912052e-01  1.094068736618407e-01  6.473030729585925e-02  3.251578862065958e-01 -6.430256528337645e-02 -8.883984684964144e-02  1.750967635587675e-02
3 1 3 -1.053081415850414e-01 -1.243266768268632e+00  1.069066054497979e+00 0 0 0 -2.237906164892288e-01 -9.580699169009634e-02  3.405603278336125e-02  8.014477202653582e-01  1.447829873019278e-01  1.791866251455196e-01  5.519162904266814e-01  1.178170635324695e-01 -1.529683304998029e-01 -1.651355300413332e-01
4 1 4  2.869340428757355e-01 -1.274472945193730e+00  1.425861247746431e+00 0 0 0 -2.169279048574005e-01 -5.359227356208757e-01 -3.311828728651977e-02  5.567319324040818e-01  1.488280583446880e-01  1.118107033935486e-01  8.095666316601784e-01 -2.726196373674236e-01  2.487664012508758e-01  3.457405964261254e-01
5 1 1  6.241853322083974e-01 -1.025301566193290e+00  1.764873745641276e+00 0 0 0 -1.394103958327107e-01 -2.346506703523042e-01 -1.316559072530374e-01  2.490581167913498e-01  1.181194689128759e-01  8.311198955956070e-02  9.576587297756639e-01  8.116034528514075e-02 -7.187122896317188e-02  1.209040997557109e-01
6 1 2  7.887855102387537e-01 -6.712930777790298e-01  2.158764499416668e+00 0 0 0 -4.380961230824165e-02  1.617497863371535e-01  1.713536429330040e-01 -4.236106182220666e-02  6.575575625486783e-02  2.027550801246107e-02  9.967299658059260e-01  8.789757236506919e-02 -4.830665263781712e-01  1.357329857533567e-01
7 1 3  7.133406299086742e-01 -4.028325740464250e-01  2.566210270529640e+00 0 0 0  6.652058089223013e-02 -1.956294547316862e-02 -7.999628463670685e-02 -4.525368899563125e-01  1.080011652292377e-01 -6.934640351260421e-02  8.824608704399659e-01  2.937040318977506e-01  4.176170681727173e-01 -1.028191915114352e-01
8 1 4  4.814425149504086e-01 -3.041979869172839e-01  3.071257326703256e+00 0 0 0  4.022436656668074e-01 -6.241148318655126e-02  1.344073016509570e-01  7.651023945442610e-01 -1.020807953314521e-02  4.013110594971499e-02 -6.425757662020378e-01  5.117357506880771e-02  1.069836135007851e-01 -1.273684562183447e-01
9 2 1  4.066827121113548e-01 -1.442543263274981e+00  3.058745410455610e+00 0 0 0  2.222968669305900e-02  4.111659560783078e-02 -3.431529496237851e-02 -2.324119237919625e-01  6.847084538592790e-01  6.788494521154690e-01 -1.277593529080443e-01 -9.126974473925464e-03 -1.191956078237020e-02  1.778626270513176e-01
10 2 2 -2.612293005805939e-02 -1.291048213723147e+00  2.719067193399529e+00 0 0 0  1.987656080846122e-01  1.356636299626421e-01 -2.868014994073204e-02 -2.355120278769271e-01  8.819092845931926e-01  3.884588307963409e-01 -1.259755343309188e-01 -2.304129896869376e-01 -4.758360277695227e-01 -2.374095972439906e-01
11 2 3 -3.270389668979655e-01 -9.135810028495722e-01  2.423090030653992e+00 0 0 0 -3.738512881528199e-01 -1.548390255036877e-01  3.376171546640802e-01 -7.290541024334891e-02  9.799900276254467e-01  1.472488025090372e-01 -1.123482846846346e-01 -3.302837927354723e-01 -4.782635972264785e-01  4.775561634091338e-02
12 2 4 -3.931426136102449e-01 -4.806827548172058e-01  2.007231031089843e+00 0 0 0 -1.306229440992230e-01  1.735268627433458e-01  6.043121936334771e-02 -2.128580342103934e-02  9.641679106393438e-01 -2.420527422720195e-01 -1.064782824085674e-01 -2.789814320156835e-01  9.435303523666796e-02  9.721275960289125e-02
13 3 1 -6.642616580508880e-02 -7.530170041962388e-02  1.562211314209277e+00 0 0 0 -1.282886597966755e-01 -1.344897446912882e-01  5.864875885711193e-02 -2.066968077110283e-02  7.935500411889174e-01 -6.071308161953926e-01 -3.526001207891376e-02 -1.825656766950412e-01  3.008794776391494e-01  7.392754694024735e-02
14 3 2  1.806838692707688e-01 -6.627362843379006e-02  1.020116593398398e+00 0 0 0  7.035042196578278e-02 -3.727404039757949e-01 -1.119472016555769e-02  5.170957295196631e-02  6.375539819634701e-01 -7.685369419705619e-01  1.421298611080028e-02 -1.400462962170837e-01  6.350501472767642e-02  2.424947821956381e-01
15 3 3  4.455067583042492e-01 -2.307730334248367e-01  5.961718979787518e-01 0 0 0 -1.869370272617798e-01  2.436516699147444e-01  2.032934066509975e-02 -6.161632000386534e-02 -3.329034559964080e-01  9.409213967283878e-01  6.755980574921162e-03 -2.337408294068907e-01  2.038730719039104e-02 -2.838115509275138e-01
16 3 4  5.019218083072963e-01 -5.586601851795463e-01  1.643819828296639e-01 0 0 0 -1.968355552868274e-01 -5.814748197447761e-02 -3.231514081171024e-02 -7.442914295323466e-02 -1.578993445585034e-03  9.949058228345308e-01 -6.797214980336544e-02  2.590590647078966e-02 -3.207492438475385e-01  7.432252979595877e-02
ITEM: TIMESTEP
4000
ITEM: NUMBER OF ATOMS
16
ITEM: BOX BOUNDS pp pp pp
-2.0000000000000000e+01 2.0000000000000000e+01
-2.0000000000000000e+01 2.0000000000000000e+01
-2.0000000000000000e+01 2.0000000000000000e+01
ITEM: ATOMS id mol type x y z ix iy iz vx vy vz c_quat[1] c_quat[2] c_quat[3] c_quat[4] angmomx angmomy angmomz
1 1 1 -6.118661253035812e-01 -6.576389026791695e-01  3.686776611522344e-01 0 0 0  1.848840288052701e-02 -2.829837288243188e-02  1.441916479933179e-01  9.960833004909152e-01 -4.258612571687669e-02  3.103082821096090e-03 -7.742642479513571e-02  2.551155509271052e-01 -1.167653690947059e-01 -3.127889965913972e-01
2 1 2 -4.545693998051331e-01 -9.928561894007143e-01  7.181497848482911e-01 0 0 0 -5.539352021419552e-02  2.362865344946201e-01 -1.860261586430859e-01  9.371789285803248e-01  1.083499367564862e-01  6.406097816618506e-02  3.253492555797413e-01 -6.946961329636947e-02 -8.553009681130076e-02  6.800193049327287e-03
3 1 3 -1.075729472411245e-01 -1.244154331955594e+00  1.069560726905887e+00 0 0 0 -2.291780287805776e-01 -8.168127478836293e-02  6.472278128888138e-02  8.026074972007956e-01  1.453766524074710e-01  1.764630611604262e-01  5.509515608633523e-01  1.669996527229785e-01 -1.817243203937642e-01 -1.677449290090095e-01
4 1 4  2.848001135649553e-01 -1.279778609492162e+00  1.425432159741265e+00 0 0 0 -2.099046702417950e-01 -5.250289317356643e-01 -5.239788340304894e-02  5.536871347232976e-01  1.487935571116178e-01  1.166266974541195e-01  8.109804237125099e-01 -3.023502569025478e-01  2.356907836985487e-01  3.454956995696672e-01
5 1 1  6.228252162940476e-01 -1.027651794039079e+00  1.763583946699087e+00 0 0 0 -1.326722162234972e-01 -2.352829204890839e-01 -1.259812648561756e-01  2.476906601242521e-01  1.175126447434141e-01  8.217040764261566e-02  9.581691600758536e-01  8.500618696528925e-02 -6.055926059932439e-02  1.188027086153028e-01
6 1 2  7.883544391335191e-01 -6.697387762761818e-01  2.160523546863036e+00 0 0 0 -4.237731295614244e-02  1.489051763871263e-01  1.804764296571033e-01 -4.393979754180907e-02  6.034675001490481e-02  1.961981560376206e-02  9.970168638444877e-01  8.465089443531613e-02 -4.476776365561430e-01  1.474307314292381e-01
7 1 3  7.140304740530783e-01 -4.029941677418327e-01  2.565521182329022e+00 0 0 0  7.138902734499010e-02 -1.271220674308310e-02 -5.776231339854295e-02 -4.515727262074263e-01  1.106586345010660e-01 -7.450243088497985e-02  8.822052637273149e-01  2.738826218595393e-01  4.129762737383295e-01 -8.986921667661708e-02
8 1 4  4.855043518694334e-01 -3.048426478418866e-01  3.072554636365494e+00 0 0 0  4.101169998328442e-01 -6.649822201397036e-02  1.250796775439457e-01  7.641154666501282e-01 -1.051298135181573e-02  4.151596467891481e-02 -6.436563178637591e-01  5.383625229455415e-02  1.165375960358692e-01 -1.272364058669453e-01
9 2 1  4.068599876689626e-01 -1.442131012269267e+00  3.058323894983956e+00 0 0 0  1.323013707339972e-02  4.135530355166583e-02 -4.997304784220472e-02 -2.319089501559941e-01  6.833605248703103e-01  6.802850383178450e-01 -1.282532593246922e-01 -2.265547677316223e-02 -1.684740105451208e-02  1.835620693849379e-01
10 2 2 -2.413355443560665e-02 -1.289653670195361e+00  2.718801099815002e+00 0 0 0  1.989885553932917e-01  1.431639783659773e-01 -2.451814117242934e-02 -2.312633153415863e-01  8.842350396174493e-01  3.871152480025919e-01 -1.216036942442033e-01 -2.510816336470385e-01 -4.781549796530194e-01 -2.119759970666728e-01
11 2 3 -3.308053521401568e-01 -9.150660967959802e-01  2.426394361715308e+00 0 0 0 -3.792333686681877e-01 -1.420668580892823e-01  3.227251050659212e-01 -6.840641888780243e-02  9.807820441391235e-01  1.476676566395424e-01 -1.076169453748575e-01 -3.178473561346474e-01 -4.642372545351491e-01  3.127759627057074e-02
12 2 4 -3.944656700868885e-01 -4.790393705003800e-01  2.007915817613070e+00 0 0 0 -1.339338947810138e-01  1.550043539190290e-01  7.639017417884486e-02 -1.783028190148553e-02  9.643842487505906e-01 -2.413438461690706e-01 -1.067625857938674e-01 -2.765327273993459e-01  9.244285003588666e-02  9.599844708403432e-02
13 3 1 -6.767933496420561e-02 -7.668099859628494e-02  1.562669680254720e+00 0 0 0 -1.222948059813385e-01 -1.414027143837739e-01  3.300599376822871e-02 -1.696328670635271e-02  7.939943800833054e-01 -6.065687975670718e-01 -3.687092510749344e-02 -1.572829599137584e-01  3.085468256103573e-01  7.920309291639252e-02
14 3 2  1.814121063174997e-01 -7.000217674356805e-02  1.020092438765759e+00 0 0 0  7.515636339376160e-02 -3.727810131198314e-01  6.241007667559245e-03  5.326066777136183e-02  6.396499839043180e-01 -7.666691227898640e-01  1.515438947548798e-02 -1.434599147724454e-01  6.148346703959041e-02  2.496722519371216e-01
15 3 3  4.436624464286560e-01 -2.283312214438377e-01  5.963910923010022e-01 0 0 0 -1.819525621583581e-01  2.444729278941905e-01  2.344736733167769e-02 -6.274038814775187e-02 -3.296410743798374e-01  9.420090141804673e-01  4.407150952704315e-03 -2.521304480341698e-01  1.971405623286444e-02 -2.868483331636120e-01
16 3 4  4.999495093313042e-01 -5.591999869319015e-01  1.640893458867501e-01 0 0 0 -1.975540599422184e-01 -4.976394866506633e-02 -2.612177849499239e-02 -7.074342835785725e-02 -2.129225656353466e-03  9.951901972114635e-01 -6.772964724911552e-02  2.751148469782975e-02 -3.143854101538943e-01  6.123171894532006e-02
ITEM: TIMESTEP
5000
ITEM: NUMBER OF ATOMS
16
ITEM: BOX BOUNDS pp pp pp
-2.0000000000000000e+01 2.0000000000000000e+01
-2.0000000000000000e+01 2.0000000000000000e+01
-2.0000000000000000e+01 2.0000000000000000e+01
ITEM: ATOMS id mol type x y z ix iy iz vx vy vz c_quat[1] c_quat[2] c_quat[3] c_quat[4] angmomx angmomy angmomz
1 1 1 -6.117320105492338e-01 -6.579745270854047e-01  3.699532614827967e-01 0 0 0  8.273327265805347e-03 -3.866140391184655e-02  1.104668237860596e-01  9.959210529502329e-01 -3.946566170928592e-02  2.452389154822518e-03 -8.110304324611399e-02  2.740106354637403e-01 -6.487930224288367e-02 -3.235528719721631e-01
2 1 2 -4.551335656872222e-01 -9.905532610982327e-01  7.163404546634837e-01 0 0 0 -5.728714291367382e-02  2.240865008215084e-01 -1.751692217585819e-01  9.373260431311602e-01  1.072690863913393e-01  6.340784402209887e-02  3.254115506390625e-01 -7.141058030028288e-02 -8.561253402247623e-02 -5.488346338931461e-03
3 1 3 -1.098918581355664e-01 -1.244900191781763e+00  1.070356669159586e+00 0 0 0 -2.346122270722246e-01 -6.749547382481526e-02  9.423636250451393e-02  8.037462164670622e-01  1.462360771358743e-01  1.731686943351433e-01  5.501087461230322e-01  2.138460273043360e-01 -2.096379381178040e-01 -1.686855663603979e-01
4 1 4  2.827350484563810e-01 -1.284969817793826e+00  1.424820036717702e+00 0 0 0 -2.031513695143695e-01 -5.130236738479996e-01 -6.965394884759812e-02  5.506997616186330e-01  1.484579855758539e-01  1.216113533544554e-01  8.123427095796689e-01 -3.278687569905421e-01  2.227373186862017e-01  3.431183289247028e-01
5 1 1  6.215305652204420e-01 -1.030004940095188e+00  1.762360161872326e+00 0 0 0 -1.263304471014970e-01 -2.352297524555982e-01 -1.184944861759227e-01  2.463224553985517e-01  1.170502314979785e-01  8.121824126346770e-02  9.586595269222371e-01  8.884806271017125e-02 -4.788229752295398e-02  1.178807087323967e-01
6 1 2  7.879384827559830e-01 -6.683189037238521e-01  2.162374155023950e+00 0 0 0 -4.078936851070814e-02  1.348818045402318e-01  1.896373561601637e-01 -4.564910403050666e-02  5.536113983307268e-02  1.899448134767015e-02  9.972414517938614e-01  8.055738004802575e-02 -4.087870293475105e-01  1.577344475770098e-01
7 1 3  7.147669448131154e-01 -4.030859675429980e-01  2.565055741276475e+00 0 0 0  7.581823929331737e-02 -5.606300446143921e-03 -3.531231588890335e-02 -4.507067976430875e-01  1.133733969327922e-01 -7.940857130878025e-02  8.818753507321376e-01  2.537325231572172e-01  4.069064408140667e-01 -7.638055977308296e-02
8 1 4  4.896447443077571e-01 -3.055274596722328e-01  3.073759557809496e+00 0 0 0  4.179571073664380e-01 -7.043754318235489e-02  1.159430189958103e-01  7.631226750357982e-01 -1.086507842266547e-02  4.300444620315341e-02 -6.447296724394165e-01  5.653499901033980e-02  1.261061629136560e-01 -1.269075028559781e-01
9 2 1  4.069474791889610e-01 -1.441715744378912e+00  3.057746488905207e+00 0 0 0  4.279949656047437e-03  4.171783061296853e-02 -6.546875369439405e-02 -2.312520778769034e-01  6.820110555909978e-01  6.817534843999316e-01 -1.288238449892721e-01 -3.569019903877173e-02 -2.231818672106672e-02  1.884882352748598e-01
10 2 2 -2.214562610813244e-02 -1.288186668607860e+00  2.718577227820242e+00 0 0 0  1.984712174117527e-01  1.501441972680965e-01 -2.023748468578555e-02 -2.267518670420785e-01  8.864621996913803e-01  3.859943334625500e-01 -1.173743321431609e-01 -2.717477529591794e-01 -4.784992005311230e-01 -1.852429493264607e-01