LAMMPS data file via write_data, version 19 Nov 2024, timestep = 100000, units = lj

1000 atoms
1 atom types
1000 ellipsoids

0 11.00642416298209 xlo xhi
0 11.00642416298209 ylo yhi
0 11.00642416298209 zlo zhi

Atoms # ellipsoid/kk

2 1 1 5.968310365946075 0.18242649304541084 0.7256055763188805 0.35276366007236165 0 0 0
14 1 1 5.968310365946075 2.8369442474298445 0.11706636409658439 0.6950660547719892 0 0 0
179 1 1 5.968310365946075 3.751465992349793 0.11230436336397413 0.16931686553331024 0 1 0
23 1 1 5.968310365946075 4.793362316409475 0.23198927360245908 0.1767916472624498 0 0 0
26 1 1 5.968310365946075 6.655166927884032 0.13328895169701768 0.8585114592864603 0 0 0
30 1 1 5.968310365946075 7.824497356925645 0.08132765933888934 0.7235881402137743 0 0 0
29 1 1 5.968310365946075 8.834182869365153 0.2834767316673182 0.10670417694049616 0 0 0
33 1 1 5.968310365946075 9.848043741118937 0.7920312769314213 0.06871203091764012 0 0 0
45 1 1 5.968310365946075 1.0118488221672204 1.4845787581067789 0.46668688028619665 0 0 0
11 1 1 5.968310365946075 2.0145551212981 0.9524427417974698 0.6534855707229279 0 0 0
16 1 1 5.968310365946075 3.1721646985434715 1.5686900967618373 0.045092654870219455 0 0 0
184 1 1 5.968310365946075 5.204691863659196 1.359867156494274 0.29055304777753244 0 1 0
27 1 1 5.968310365946075 6.457458330936151 1.1215342502949346 0.027884494145509118 0 0 0
31 1 1 5.968310365946075 7.5491463903982865 1.3777880607172137 0.12973620620152845 0 0 0
12 1 1 5.968310365946075 2.371649108601221 2.037304945710255 0.6609166816835946 0 0 0
19 1 1 5.968310365946075 4.23236558271645 1.8311695278325772 0.1072683396929539 0 0 0
66 1 1 5.968310365946075 7.222572629358228 2.3229356369401146 0.6742336999549051 0 0 0
73 1 1 5.968310365946075 8.634449269348025 1.5791220429288146 0.13668528543076125 0 0 0
77 1 1 5.968310365946075 9.740892843725737 2.326876317764586 0.5221522661755289 0 0 0
78 1 1 5.968310365946075 0.5537871970513214 2.802661333531167 0.095839829479923 1 0 0
49 1 1 5.968310365946075 1.9032695206703272 2.9297234359693727 0.16000866186771187 0 0 0
57 1 1 5.968310365946075 3.913731941297032 2.9160206854586965 0.11580211645286055 0 0 0
61 1 1 5.968310365946075 5.297326271235643 2.4627522575730856 0.14184690948560208 0 0 0
852 1 1 5.968310365946075 1.1505340997659674 3.7562115311309077 0.18246487442016512 0 0 1
50 1 1 5.968310365946075 2.852875741959606 3.237573023599086 0.6641349345086088 0 0 0
58 1 1 5.968310365946075 4.482829160248988 3.6058941720644313 0.7610049751595643 0 0 0
67 1 1 5.968310365946075 6.920284007112846 3.250721564162347 0.18731623073502351 0 0 0
71 1 1 5.968310365946075 8.031363515849852 3.500619480328833 0.07018232429932734 0 0 0
75 1 1 5.968310365946075 9.335180690313154 3.4814456795575226 0.5500047171643533 0 0 0
43 1 1 5.968310365946075 10.483389550893767 3.0943686485125994 0.17869162487309792 -1 0 0
51 1 1 5.968310365946075 2.2284817552670457 4.243732673579789 0.49847008044260094 0 0 0
55 1 1 5.968310365946075 3.658444929449172 4.4456087136929305 0.6474648606173754 0 0 0
316 1 1 5.968310365946075 8.310255552753366 5.4995642200782715 3.34900845854166 0 0 0
68 1 1 5.968310365946075 6.558789051032491 4.596260547784389 0.6654142593866457 0 0 0
502 1 1 5.968310365946075 5.567408158326017 4.585632994750963 4.8083152030252085 0 0 0
81 1 1 5.968310365946075 0.8274302399503002 4.776417018099435 0.3575982152750718 0 0 0
102 1 1 5.968310365946075 4.959626397515564 5.346852703067325 0.6707831536991509 0 0 0
113 1 1 5.968310365946075 9.342044654043107 5.044145425000503 0.5204088587743689 0 0 0
119 1 1 5.968310365946075 10.629470217315282 5.051307423104356 0.67554500151103 0 0 0
8 1 1 5.968310365946075 1.1251983643765138 0.7257770667707903 1.2635524836866998 0 0 0
183 1 1 5.968310365946075 5.563304113723341 0.43276952757255127 1.103380906324403 0 1 0
233 1 1 5.968310365946075 8.382544945278227 0.6442814343123957 1.5978522432615427 0 0 0
10 1 1 5.968310365946075 2.9800946557013948 1.1956295467717881 1.2531723643360644 0 0 0
18 1 1 5.968310365946075 4.280514366269465 1.0386153047429274 0.8768969548613158 0 0 0
20 1 1 5.968310365946075 5.216948135114421 1.356740305820854 1.4840221352946281 0 0 0
28 1 1 5.968310365946075 7.345734705901028 1.3165872597883526 1.2245487163156004 0 0 0
35 1 1 5.968310365946075 9.283811091776531 1.0303914219725205 0.9865749791211641 0 0 0
241 1 1 5.968310365946075 10.557850061398685 1.5253909160952297 0.7990813159283624 -1 0 0
46 1 1 5.968310365946075 1.3000143164769178 2.415872070298406 0.9710231517712378 0 0 0
257 1 1 5.968310365946075 4.718701529050086 2.433792153807418 1.1993566790693153 0 0 0
22 1 1 5.968310365946075 5.93918881632966 1.9512078109998792 0.8996794106538701 0 0 0
54 1 1 5.968310365946075 3.7583552978147536 2.93174079154067 1.2471764349079366 0 0 0
24 1 1 5.968310365946075 6.014419431594795 3.1462785023146904 0.7718274349215027 0 0 0
269 1 1 5.968310365946075 7.773746133022355 2.6916266927569885 1.5391350431645066 0 0 0
70 1 1 5.968310365946075 8.687369802425346 2.583953887517918 0.9460573781444656 0 0 0
279 1 1 5.968310365946075 9.956024878743825 3.0906081567820287 1.3740092020570942 0 0 0
42 1 1 5.968310365946075 10.900067109092351 2.5546022477478587 1.0614757443240352 -1 0 0
52 1 1 5.968310365946075 0.7428715926241928 3.197442191572874 1.4069376872495556 0 0 0
249 1 1 5.968310365946075 1.8654399241594892 3.378427717503361 1.1955961536372361 0 0 0
72 1 1 5.968310365946075 7.304675728827924 3.654239520286381 1.1054134506689843 0 0 0
76 1 1 5.968310365946075 8.366445804505947 3.5781745639532287 1.3808025926811809 0 0 0
82 1 1 5.968310365946075 0.03992500368317485 3.8698505735286193 0.9215262810397591 0 0 0
86 1 1 5.968310365946075 0.9990580428542258 4.312858133175875 1.3715572311181525 0 0 0
56 1 1 5.968310365946075 3.0871130026078393 3.89720428632378 1.4902651452035294 0 0 0
98 1 1 5.968310365946075 4.490320286154231 4.609263195376663 1.413588746673931 0 0 0
63 1 1 5.968310365946075 5.547925377849005 4.111450528364333 0.9719854228767152 0 0 0
110 1 1 5.968310365946075 8.387855774636932 4.518115570631097 0.7461719859714483 0 0 0
80 1 1 5.968310365946075 9.826732758385823 4.247561613728416 1.0939113518595087 0 0 0
287 1 1 5.968310365946075 0.40401900401550966 5.348550700853791 1.5041285348321076 0 0 0
92 1 1 5.968310365946075 1.6959614586387368 5.2497762795574685 1.028025474353193 0 0 0
293 1 1 5.968310365946075 2.8986334518169596 5.128522222509186 1.0733873706308448 0 0 0
301 1 1 5.968310365946075 5.709368819568502 5.187923469544873 1.4168747563810278 0 0 0
106 1 1 5.968310365946075 7.507809527854384 5.098975409724876 1.0991931749417914 0 0 0
4 1 1 5.968310365946075 0.03442035962449036 0.5145821200015305 1.6033310329384356 0 0 0
172 1 1 5.968310365946075 2.5184446575251624 0.09587086024139248 1.7506955191878735 0 1 0
213 1 1 5.968310365946075 3.8265433843225884 0.6731991360227215 1.8199066852883976 0 0 0
217 1 1 5.968310365946075 4.900170913552443 0.22185016020905549 2.282065838340306 0 0 0
225 1 1 5.968310365946075 6.117097290462816 0.026246237422403815 1.9943169736106539 0 0 0
229 1 1 5.968310365946075 7.21115738803513 0.38710243930625043 1.7919632683828348 0 0 0
227 1 1 5.968310365946075 6.346539323152301 1.1226290305438142 1.8380229601288012 0 0 0
239 1 1 5.968310365946075 9.979661468220051 0.8746157891072288 2.062685115171846 0 0 0
203 1 1 5.968310365946075 10.775713837655676 1.6644313676771214 1.9336232667117985 -1 0 0
245 1 1 5.968310365946075 0.897630592167766 1.5939941109792353 1.9258510994487212 0 0 0
211 1 1 5.968310365946075 1.973516539315918 1.5777307184818483 1.6267393450211942 0 0 0
215 1 1 5.968310365946075 3.87451246179348 1.7868115549069492 1.617872768252557 0 0 0
231 1 1 5.968310365946075 7.22328986705182 1.7205100269049056 2.2478422051435913 0 0 0
32 1 1 5.968310365946075 8.230489308234286 1.7049722993565661 1.7941747020451722 0 0 0
40 1 1 5.968310365946075 9.58288617727441 2.0188123244311047 1.5116187719691068 0 0 0
48 1 1 5.968310365946075 1.177099449143983 2.632535046781733 2.211209472589302 0 0 0
252 1 1 5.968310365946075 2.7850210641811954 2.3422309175272518 1.6496135384151995 0 0 0
253 1 1 5.968310365946075 4.320344880847272 2.6983602710703454 2.218832420605711 0 0 0
223 1 1 5.968310365946075 5.4514371338697325 2.3595486529106866 2.0857190512425245 0 0 0
265 1 1 5.968310365946075 6.644116220179033 2.631579983208792 1.8049362234340027 0 0 0
74 1 1 5.968310365946075 8.746656942535054 2.646059543526124 2.1288475442156147 0 0 0
243 1 1 5.968310365946075 10.96114896810613 2.8337866833239396 2.206864854866576 -1 0 0
285 1 1 5.968310365946075 1.2722672104696726 3.9380212894235056 2.37062059213336 0 0 0
247 1 1 5.968310365946075 2.163083074352435 3.342597973489131 2.3594299067217204 0 0 0
60 1 1 5.968310365946075 4.012824741532839 3.9012667534099075 2.1636538559715457 0 0 0
64 1 1 5.968310365946075 5.065815358021023 3.3817098865927977 1.7621305941899519 0 0 0
62 1 1 5.968310365946075 6.328058689650105 3.8182015279093053 1.6636399543642764 0 0 0
275 1 1 5.968310365946075 9.251309536261008 3.5719367167028127 2.0972647080467124 0 0 0
90 1 1 5.968310365946075 2.0745453494227557 4.3439157887885145 1.7374829806716394 0 0 0
309 1 1 5.968310365946075 7.884229309706926 4.438258241181643 1.9162391771623566 0 0 0
44 1 1 5.968310365946075 10.563821170464404 3.9609062792973644 1.8977998837376218 -1 0 0
289 1 1 5.968310365946075 1.3400978963738457 5.340466702451641 2.0753343199795333 0 0 0
96 1 1 5.968310365946075 2.5392604445305405 5.181499786292897 2.2729939589012815 0 0 0
299 1 1 5.968310365946075 3.6007554146709997 4.958870943460904 2.0795301575919676 0 0 0
305 1 1 5.968310365946075 6.724694622396205 4.854093663331024 1.7863490363772367 0 0 0
312 1 1 5.968310365946075 7.475017880573329 5.502480918716837 2.321889368290653 0 0 0
114 1 1 5.968310365946075 8.913690805092063 4.7982114040370645 1.7496409912417286 0 0 0
283 1 1 5.968310365946075 10.082023135456302 5.314312150227203 1.7197114792593657 -1 0 0
207 1 1 5.968310365946075 1.2860283460531996 0.5065015315067816 2.462737223846178 0 0 0
214 1 1 5.968310365946075 2.8154948085359877 0.21542111367478967 3.0133055382700213 0 0 0
230 1 1 5.968310365946075 6.7444108770592095 0.7488839677275743 2.8427360758142974 0 0 0
238 1 1 5.968310365946075 8.89121669061206 0.35731049608805093 2.695647835024144 0 0 0
202 1 1 5.968310365946075 10.360980971829818 0.6034095959134853 3.050387663000388 -1 0 0
206 1 1 5.968310365946075 0.3337488174489254 1.046719950335174 2.706813916171176 0 0 0
212 1 1 5.968310365946075 2.0054872953079785 1.03187834336074 3.109600659973201 0 0 0
209 1 1 5.968310365946075 2.82688825565717 1.1399541738722931 2.3771698674584347 0 0 0
221 1 1 5.968310365946075 5.55141957825535 1.0218180656398863 2.591047421635376 0 0 0
236 1 1 5.968310365946075 7.886181544993264 0.8307522569292101 2.5634699970959054 0 0 0
235 1 1 5.968310365946075 9.073341840902474 1.4608366193611482 2.60529195503954 0 0 0
246 1 1 5.968310365946075 0.6484056927554587 2.1345385299649133 3.0626569822194925 0 0 0
208 1 1 5.968310365946075 2.0880648665285286 2.086659924672281 2.676841498629768 0 0 0
254 1 1 5.968310365946075 3.4614347769649836 1.9883136128212102 2.662343081905321 0 0 0
258 1 1 5.968310365946075 4.645771664298116 1.6365825562860645 2.415445865288164 0 0 0
266 1 1 5.968310365946075 6.237867056166034 2.022771285161605 2.828305644176244 0 0 0
273 1 1 5.968310365946075 8.155349407190329 1.8880883127922827 2.860971655610994 0 0 0
242 1 1 5.968310365946075 10.539573100855426 1.7756759726566216 3.057534885660139 -1 0 0
256 1 1 5.968310365946075 3.24367449972789 3.1725983221163037 2.4337868640790274 0 0 0
262 1 1 5.968310365946075 5.082541216467366 2.7873083864936716 3.1466078292167095 0 0 0
270 1 1 5.968310365946075 7.200751246978537 2.661823563873315 2.7517651363306297 0 0 0
278 1 1 5.968310365946075 8.923925687362637 3.1146564520345676 3.1003627586178206 0 0 0
277 1 1 5.968310365946075 9.808491855083965 2.6129354134882083 2.440274076037144 0 0 0
281 1 1 5.968310365946075 0.2875498901921645 3.8402515470223286 2.765533198925009 0 0 0
259 1 1 5.968310365946075 4.960107133429714 3.9040557549626964 2.760114615373153 0 0 0
261 1 1 5.968310365946075 6.0000237519042745 3.1390142433981207 2.6192926914953603 0 0 0
267 1 1 5.968310365946075 7.001448682114013 3.786747968658974 2.520724338348371 0 0 0
271 1 1 5.968310365946075 8.122890414819121 3.512664901464163 2.5050383455279617 0 0 0
280 1 1 5.968310365946075 10.224798065525668 3.657561298351051 2.909315059633336 0 0 0
251 1 1 5.968310365946075 2.998100604794061 4.211740483276152 2.6651566232494304 0 0 0
255 1 1 5.968310365946075 4.139354080271335 4.4887711791955045 3.0835631647306556 0 0 0
263 1 1 5.968310365946075 6.001018766906346 4.282974161693081 2.6921790776316654 0 0 0
306 1 1 5.968310365946075 7.5324029844200115 4.691772223946405 3.1319437727379387 0 0 0
313 1 1 5.968310365946075 8.633625176845245 4.593237524377739 2.8129794837916307 0 0 0
317 1 1 5.968310365946075 9.710912883663646 4.6808249152650125 2.5499318204346717 0 0 0
286 1 1 5.968310365946075 0.7866305808493382 4.758689932746224 3.0837135075036373 0 0 0
297 1 1 5.968310365946075 5.2222334112412145 5.001489445893733 2.463666898304285 0 0 0
302 1 1 5.968310365946075 6.483540619593219 5.304762571768336 2.8772016646992116 0 0 0
318 1 1 5.968310365946075 10.882164451525849 4.986147865057987 2.4484935844911044 0 0 0
445 1 1 5.968310365946075 0.9722697776536805 0.5662865445240041 3.5613561025137286 0 0 0
407 1 1 5.968310365946075 1.9921932435713934 0.0753992186598156 3.8277473542368448 0 0 0
228 1 1 5.968310365946075 5.889425879078165 0.49800373673920356 3.510489344198239 0 0 0
515 1 1 5.968310365946075 10.054470864137684 4.4177142181602695 4.9192342423416955 0 0 0
216 1 1 5.968310365946075 3.5775202425995287 0.943033719939998 3.320590014667234 0 0 0
219 1 1 5.968310365946075 4.764013064755015 1.0595353188442405 3.3915966404358366 0 0 0
435 1 1 5.968310365946075 8.248448701026856 0.9270440742271597 3.645895844566902 0 0 0
240 1 1 5.968310365946075 9.418094957713153 1.0171013440218661 3.57538903239805 0 0 0
204 1 1 5.968310365946075 10.916728620308502 1.0920471612133362 3.843836569777159 -1 0 0
248 1 1 5.968310365946075 1.6095161452552926 1.9950097691956648 3.678791444101505 0 0 0
250 1 1 5.968310365946075 2.7757143657563756 1.6827752611323994 3.4648552608347276 0 0 0
220 1 1 5.968310365946075 4.229954559705493 2.2003662403136515 3.6437932495380094 0 0 0
224 1 1 5.968310365946075 5.6573854376377115 1.6526817705887191 3.7572435228963754 0 0 0
274 1 1 5.968310365946075 7.174654195479472 1.707238748908603 3.3606046357112045 0 0 0
473 1 1 5.968310365946075 8.854047726564534 2.2385228620479594 3.7877026805538314 0 0 0
451 1 1 5.968310365946075 2.048061963900907 3.0137000683171458 3.797952825339366 0 0 0
455 1 1 5.968310365946075 3.0879798322939287 2.7449132253612816 3.4209992010657198 0 0 0
268 1 1 5.968310365946075 6.180826087590027 2.7163048277511943 3.771131920307619 0 0 0
272 1 1 5.968310365946075 7.729884830928344 2.494338632334985 4.001561310411426 0 0 0
477 1 1 5.968310365946075 9.919701044280465 2.5798700797809846 3.5159726510897573 0 0 0
244 1 1 5.968310365946075 0.0024796707485741365 3.001528361704821 3.4812923633317263 0 0 0
282 1 1 5.968310365946075 1.063317675206303 3.2328475536112355 3.3291300028357305 0 0 0
260 1 1 5.968310365946075 3.9910671040182626 3.3900518125559933 3.277162231118719 0 0 0
264 1 1 5.968310365946075 5.787999281881832 3.7064420928977886 3.714908718858797 0 0 0
505 1 1 5.968310365946075 7.075379035102845 3.335727805610719 3.6009879525955135 0 0 0
310 1 1 5.968310365946075 8.077875647207243 3.7924666960308797 3.837239991765371 0 0 0
479 1 1 5.968310365946075 0.3954375933987254 4.1007145434575705 3.931359371563433 1 0 0
290 1 1 5.968310365946075 1.9025943637140226 4.237127067308483 3.242724470252957 0 0 0
493 1 1 5.968310365946075 3.200004503746737 4.281173616759407 3.764018906511213 0 0 0
501 1 1 5.968310365946075 5.098515966632828 4.624304573735262 3.636152669828433 0 0 0
507 1 1 5.968310365946075 6.63383497946827 4.411953561548129 3.727611093170098 0 0 0
276 1 1 5.968310365946075 9.341215490203846 4.104791581724504 3.5568291226187707 0 0 0
314 1 1 5.968310365946075 10.32585362359956 4.659811901269967 3.588415298019989 0 0 0
292 1 1 5.968310365946075 2.0938732185129876 5.403371021008206 3.7253865012294978 0 0 0
296 1 1 5.968310365946075 3.151307576885428 5.225113105014263 3.1727912881534666 0 0 0
308 1 1 5.968310365946075 5.9989527570567045 5.454708460496927 3.826679670027503 0 0 0
514 1 1 5.968310365946075 8.655746074538717 4.489425984696852 4.965841692736932 0 0 0
222 1 1 5.968310365946075 4.071018467009946 0.641195583127946 4.278184051400995 0 0 0
232 1 1 5.968310365946075 6.637943069069453 0.6694023830032264 4.380709310711085 0 0 0
434 1 1 5.968310365946075 7.83655551658702 0.3940787568502784 4.605565398405237 0 0 0
433 1 1 5.968310365946075 9.031654954721809 0.17288536785863418 4.251687627663145 0 0 0
437 1 1 5.968310365946075 10.146068202873261 0.3984126833797719 4.30788777148591 0 0 0
441 1 1 5.968310365946075 0.8551804610064792 1.4597696208786493 4.472827448492509 0 0 0
415 1 1 5.968310365946075 2.8688238885205073 0.7876837042781699 4.180627358261151 0 0 0
423 1 1 5.968310365946075 4.680162581070383 1.6117424048969862 4.490184504365814 0 0 0
431 1 1 5.968310365946075 7.751565678204581 1.4838647709342694 4.496146280567294 0 0 0
436 1 1 5.968310365946075 8.845509199946298 1.229953455392035 4.503301268841021 0 0 0
449 1 1 5.968310365946075 2.423057407415314 1.9469092774986756 4.541070459302743 0 0 0
453 1 1 5.968310365946075 3.524801839872214 1.8076274629172742 4.519233057422688 0 0 0
465 1 1 5.968310365946075 6.64809539491461 1.840038351476246 4.3242958993319665 0 0 0
439 1 1 5.968310365946075 10.024654401402177 1.576554063778414 4.298614467357165 0 0 0
447 1 1 5.968310365946075 0.7361215823920146 2.6478406777419887 4.225043738722259 0 0 0
457 1 1 5.968310365946075 4.169919200154757 2.8080955292668683 4.582298525298221 0 0 0
461 1 1 5.968310365946075 5.16724963591518 2.5310551517356363 4.224864684968159 0 0 0
443 1 1 5.968310365946075 10.649577759177822 2.557710770321014 4.4960160796112785 -1 0 0
485 1 1 5.968310365946075 1.3118874560087366 3.618086320396818 4.45141246884592 0 0 0
475 1 1 5.968310365946075 9.011498619950036 3.1703866240175667 4.206046241363002 0 0 0
518 1 1 5.968310365946075 10.340302205322631 3.5542080551691115 4.17858399007778 0 0 0
452 1 1 5.968310365946075 2.318345957548467 4.110837723757602 4.279755983843162 0 0 0
497 1 1 5.968310365946075 4.51974367844565 3.8675147539629235 4.245786130997919 0 0 0
483 1 1 5.968310365946075 0.051186707803241256 5.016649014547232 4.565209384166222 0 0 0
487 1 1 5.968310365946075 1.1956251250046932 4.915804173029807 4.167798192955826 0 0 0
489 1 1 5.968310365946075 2.935042122845711 5.1277461466394945 4.5466666486124 0 0 0
294 1 1 5.968310365946075 4.07145232740315 4.83707014554511 4.5464537963847915 0 0 0
509 1 1 5.968310365946075 7.828267721513889 4.801952950154273 4.283280840316927 0 0 0
513 1 1 5.968310365946075 9.138212219421082 5.121739167954784 4.025212378154298 0 0 0
403 1 1 5.968310365946075 0.10783517107406344 0.449069359991699 4.814148452536502 0 0 0
408 1 1 5.968310365946075 0.9575254344564509 0.7257916174333101 5.387947346560012 0 0 0
411 1 1 5.968310365946075 1.872930863448955 0.8223801333687389 4.699923372578453 0 0 0
422 1 1 5.968310365946075 5.0333961717037985 0.7692466941468769 5.3198579944287845 0 0 0
438 1 1 5.968310365946075 8.550054239407322 0.5691334817397046 5.468004555184606 0 0 0
492 1 1 5.968310365946075 2.2171311448299935 5.368994360219424 5.468289278491606 0 0 0
454 1 1 5.968310365946075 2.7228829816187035 1.2316226089631734 5.375681947021277 0 0 0
419 1 1 5.968310365946075 3.979455398978556 1.1877874352075004 5.404192811454854 0 0 0
421 1 1 5.968310365946075 5.779925367382602 1.3915324665092073 4.836865522509846 0 0 0
427 1 1 5.968310365946075 6.771729711609497 1.3941702093938213 5.3190683142866115 0 0 0
440 1 1 5.968310365946075 9.632173776044864 1.049307994136942 5.284001762111338 0 0 0
478 1 1 5.968310365946075 10.851210239919265 1.5210466483795002 5.047208972621495 0 0 0
442 1 1 5.968310365946075 0.7453103589403081 2.383351623473628 5.4043610720473545 0 0 0
446 1 1 5.968310365946075 1.7576191414836855 1.7406365698993624 5.39011985934344 0 0 0
458 1 1 5.968310365946075 4.953981693180047 2.158267245402641 5.420652604866449 0 0 0
471 1 1 5.968310365946075 8.322194473587311 2.24711944284315 5.074078620206958 0 0 0
448 1 1 5.968310365946075 1.7146465824255197 2.7817531537307314 5.073124220843163 0 0 0
450 1 1 5.968310365946075 2.8742848405232215 2.977986626171203 4.8546673007056755 0 0 0
467 1 1 5.968310365946075 6.039520774746052 2.4586351666203883 5.087119022213312 0 0 0
469 1 1 5.968310365946075 7.215165503464811 2.43238945071127 5.20460404823198 0 0 0
474 1 1 5.968310365946075 9.541132143754028 2.487553179312815 4.878454275595895 0 0 0
481 1 1 5.968310365946075 0.2924314710931409 3.470868996385934 4.8946451067461645 0 0 0
456 1 1 5.968310365946075 3.489299848167335 3.851729954429965 4.815277564115184 0 0 0
459 1 1 5.968310365946075 5.035191123608594 3.318601901257242 5.084563430780585 0 0 0
463 1 1 5.968310365946075 6.261670953895256 3.464344766478035 4.72252081443749 0 0 0
510 1 1 5.968310365946075 7.607548619475598 3.358489811244742 4.761133648196964 0 0 0
476 1 1 5.968310365946075 8.789848357755405 3.298529419776034 5.3727959004500425 0 0 0
480 1 1 5.968310365946075 10.259668822349918 3.26697206275326 5.352336244826016 0 0 0
486 1 1 5.968310365946075 0.7168164436657386 4.456644398884126 5.2396942280790935 0 0 0
689 1 1 5.968310365946075 1.8389198014552206 4.434831181948397 5.238090584906201 0 0 0
506 1 1 5.968310365946075 7.031847742504709 4.256059058062497 5.042377024017476 0 0 0
498 1 1 5.968310365946075 4.360184844922892 4.16196430248228 5.362585249076314 0 0 0
615 1 1 5.968310365946075 1.9841997472856863 0.4367845752152447 5.845322603151816 0 0 0
420 1 1 5.968310365946075 3.138233126493619 0.52878747464399 6.143680908156556 0 0 0
623 1 1 5.968310365946075 6.154586803479754 0.5543342353638516 5.780437397435604 0 0 0
426 1 1 5.968310365946075 7.445550872501292 0.317627255681292 5.606562520326742 0 0 0
639 1 1 5.968310365946075 9.245418841370624 0.6788455441714216 6.346017815745704 0 0 0
661 1 1 5.968310365946075 4.594601130525734 1.486353736909855 6.257224693368759 0 0 0
424 1 1 5.968310365946075 5.7187257582163005 1.5797435014033918 6.0028516105744805 0 0 0
432 1 1 5.968310365946075 7.805716658791766 1.3865173626762164 5.731755369266306 0 0 0
404 1 1 5.968310365946075 10.723979206217606 0.7950575758785394 5.895078536851863 -1 0 0
607 1 1 5.968310365946075 0.8833558979239882 1.4960567582912283 6.1725232680503614 0 0 0
651 1 1 5.968310365946075 2.816041101480207 2.2434814469265034 5.7731679142236825 0 0 0
653 1 1 5.968310365946075 3.8542753726203975 2.2457489518272573 5.576519317252616 0 0 0
466 1 1 5.968310365946075 6.819333943695011 2.15233541642252 6.194070081713195 0 0 0
470 1 1 5.968310365946075 9.110945312288283 1.9065843685429338 5.791537214088188 0 0 0
677 1 1 5.968310365946075 10.674951386722267 2.3443920768267397 5.810618163366327 0 0 0
647 1 1 5.968310365946075 1.6491849937937062 2.4930890260835756 6.246228713799183 0 0 0
657 1 1 5.968310365946075 4.518551867847039 2.92274495047309 6.228553379793356 0 0 0
462 1 1 5.968310365946075 5.765703751177002 2.8169045979713245 6.207751252601934 0 0 0
669 1 1 5.968310365946075 7.8386824579680106 2.5845828458341664 6.102097923259927 0 0 0
679 1 1 5.968310365946075 9.621374960224635 2.7391410382236185 6.196495503794161 0 0 0
444 1 1 5.968310365946075 0.9860681021027585 3.421841671798521 5.765946558276141 0 0 0
693 1 1 5.968310365946075 2.3420019835097468 3.281223647365061 5.890330043389527 0 0 0
659 1 1 5.968310365946075 3.4711229630728537 3.2809696519614855 5.791882667894658 0 0 0
468 1 1 5.968310365946075 6.685038142607259 3.2387867227389426 5.730610658589193 0 0 0
472 1 1 5.968310365946075 7.647078171805986 3.787230319741408 5.9573676628485135 0 0 0
460 1 1 5.968310365946075 5.644336222783966 4.0499196484814695 5.790304046660987 0 0 0
709 1 1 5.968310365946075 6.648283861983166 4.293027933520831 6.161918628449714 0 0 0
717 1 1 5.968310365946075 9.48897916775329 4.047094188581484 5.818512777585783 0 0 0
520 1 1 5.968310365946075 10.698567826005352 4.255726773813251 5.772727697615519 0 0 0
484 1 1 5.968310365946075 0.07628982946987012 5.383871874016056 5.693427460502915 0 0 0
725 1 1 5.968310365946075 1.0503591244635173 5.3527157629945865 6.2788323947628815 0 0 0
103 1 1 5.968310365946075 5.801836223760994 5.449476656095712 10.88394779475256 0 0 -1
494 1 1 5.968310365946075 3.7751782050279905 5.193338819098462 5.584576819411435 0 0 0
500 1 1 5.968310365946075 4.871651717654746 5.132623908967422 5.675721746748597 0 0 0
703 1 1 5.968310365946075 6.01050475977734 5.153671422052045 5.725048654963605 0 0 0
508 1 1 5.968310365946075 7.791632832409504 4.856952167959306 5.555413765719194 0 0 0
711 1 1 5.968310365946075 8.610301548841647 5.1383067185724025 6.186585593345794 0 0 0
516 1 1 5.968310365946075 9.95660451163568 5.097467096802956 5.967418599404167 0 0 0
608 1 1 5.968310365946075 0.09012196091465292 0.43085867375930587 6.864276326585442 0 0 0
605 1 1 5.968310365946075 1.369703551423948 0.6640166590294225 6.7589204642209095 0 0 0
611 1 1 5.968310365946075 2.4925277489417086 0.029229760950523515 6.980639623465688 0 0 0
624 1 1 5.968310365946075 4.06102068402757 0.5559720224699138 6.704683715482358 0 0 0
627 1 1 5.968310365946075 5.161481958682861 0.565891161035542 6.504234900398123 0 0 0
626 1 1 5.968310365946075 6.185271055604586 0.3314995156305006 6.874638251191042 0 0 0
649 1 1 5.968310365946075 2.2041649632381772 1.3769020021000071 6.3688087188599685 0 0 0
428 1 1 5.968310365946075 7.000850597511568 1.0904883999650141 6.395220995603693 0 0 0
631 1 1 5.968310365946075 7.9457568808395065 0.7394707828794187 6.772089954641059 0 0 0
670 1 1 5.968310365946075 8.755833533919544 1.56690105167708 6.8376310634028945 0 0 0
673 1 1 5.968310365946075 9.936260050338408 1.5138670692194554 6.466723786942421 0 0 0
641 1 1 5.968310365946075 10.949316479948001 1.5309219579500306 6.849047180468002 -1 0 0
619 1 1 5.968310365946075 3.443935658202769 1.535556782404686 6.364636626572238 0 0 0
658 1 1 5.968310365946075 4.192323961621912 2.1785512737566637 6.982900806711891 0 0 0
666 1 1 5.968310365946075 7.601095897585622 1.843659038591121 6.9213778007073 0 0 0
643 1 1 5.968310365946075 0.5828462720668991 2.508941675375033 6.498806257375501 0 0 0
655 1 1 5.968310365946075 2.6932276705406157 2.585383804202201 6.811636628962321 0 0 0
675 1 1 5.968310365946075 8.691473530887377 2.8048495700869496 6.787300449140411 0 0 0
685 1 1 5.968310365946075 1.5515502190652715 3.7569993820497083 6.680010334542021 0 0 0
698 1 1 5.968310365946075 3.654861238276824 3.1914568869618 7.009441143854706 0 0 0
464 1 1 5.968310365946075 5.689965926532854 3.7157517292844964 6.831527528484774 0 0 0
482 1 1 5.968310365946075 10.761807428394636 3.2139070299482864 6.5414523070524755 -1 0 0
683 1 1 5.968310365946075 0.484666446472651 4.2408808038015735 6.607432314835349 0 0 0
687 1 1 5.968310365946075 2.011956218222415 4.678960451956641 6.312182173896433 0 0 0
652 1 1 5.968310365946075 3.0175094383769254 3.9607526923050327 6.561541913941379 0 0 0
699 1 1 5.968310365946075 4.6341970194070505 3.9966834715895914 6.395173307061745 0 0 0
707 1 1 5.968310365946075 7.5388964481741185 4.718211758032808 6.7199756363770575 0 0 0
713 1 1 5.968310365946075 8.602892043186994 3.994368830194441 6.442619567252491 0 0 0
719 1 1 5.968310365946075 10.393642163522054 4.27581450948161 6.964118475522521 0 0 0
721 1 1 5.968310365946075 0.12202510286556167 5.296917585307945 6.838090832376116 0 0 0
694 1 1 5.968310365946075 2.9882999079776265 5.131875590047043 6.393259225470455 0 0 0
697 1 1 5.968310365946075 3.9405405767081043 4.890706028704016 6.859507314350766 0 0 0
741 1 1 5.968310365946075 5.008689506293189 5.232147605028283 6.833929657203754 0 0 0
705 1 1 5.968310365946075 6.158884819298076 5.36305637705634 6.814326357251203 0 0 0
715 1 1 5.968310365946075 9.385172354982316 4.813760541710955 6.879562565067418 0 0 0
807 1 1 5.968310365946075 1.9119276086512877 0.6370928878394893 7.774815442750945 0 0 0
618 1 1 5.968310365946075 4.06409429172597 0.2211856410969387 7.87884972459554 0 0 0
780 1 1 5.968310365946075 5.120101375164118 0.5066523263075154 7.61540575998262 0 1 0
630 1 1 5.968310365946075 7.721142791122643 0.11399301960686381 7.667947682486084 0 0 0
634 1 1 5.968310365946075 8.791118237949275 0.3618887003550104 7.449386421856881 0 0 0
616 1 1 5.968310365946075 2.9793453360682625 1.112310628943609 7.2955378925384835 0 0 0
620 1 1 5.968310365946075 3.9998999624135525 1.3325421020966646 7.745327381863742 0 0 0
662 1 1 5.968310365946075 5.1468787469899215 1.5848097294574648 7.183779542297998 0 0 0
632 1 1 5.968310365946075 7.002222902790519 0.9394210046786587 7.496907987410571 0 0 0
603 1 1 5.968310365946075 10.19094703479462 0.9753210848177196 7.545433170353763 -1 0 0
642 1 1 5.968310365946075 0.24185504184074139 2.260012303202004 7.578199105625575 0 0 0
645 1 1 5.968310365946075 1.0883736988929877 1.6981031159135662 7.244471432023257 0 0 0
650 1 1 5.968310365946075 2.231055178397682 1.8469717479642398 7.672128176968441 0 0 0
664 1 1 5.968310365946075 6.218388665933753 1.63132886415712 7.067808632076011 0 0 0
678 1 1 5.968310365946075 9.067467216337278 2.27607465591527 7.675842075170307 0 0 0
644 1 1 5.968310365946075 1.5106845093928012 2.66125332591859 7.492287071438222 0 0 0
654 1 1 5.968310365946075 3.184423582918641 2.383900241053125 7.849276385663209 0 0 0
663 1 1 5.968310365946075 5.672403936793392 2.586816775588233 7.327971782001234 0 0 0
665 1 1 5.968310365946075 6.74763961238361 2.7438332245684243 7.1125317412143465 0 0 0
672 1 1 5.968310365946075 7.985334277652101 2.5455101468317385 7.811435989081278 0 0 0