LAMMPS (19 Nov 2024 - Development - patch_19Nov2024-564-gf96768effb-modified)
KOKKOS mode with Kokkos version 4.5.1 is enabled (src/KOKKOS/kokkos.cpp:72)
  using 1 OpenMP thread(s) per MPI task
package kokkos
package kokkos comm no
###
# Box and units  (use LJ units and periodic boundaries)
###

units           lj
atom_style      ellipsoid
dimension	3
boundary	p p p

lattice		sc 0.75
Lattice spacing in x,y,z = 1.1006424 1.1006424 1.1006424
region		box block 0 10 0 10 0 10
create_box	1 box
Created orthogonal box = (0 0 0) to (11.006424 11.006424 11.006424)
  1 by 2 by 2 MPI processor grid
create_atoms	1 box
Created 1000 atoms
  using lattice units in orthogonal box = (0 0 0) to (11.006424 11.006424 11.006424)
  create_atoms CPU = 0.001 seconds

group           all type 1
1000 atoms in group all
set             type 1 mass 1.0
Setting atom values ...
  1000 settings made for mass
set             type 1 shape 1.0 0.4 0.8
Setting atom values ...
  1000 settings made for shape
set             type 1 quat/random 29898
Setting atom values ...
  1000 settings made for quat/random

velocity 	all create 0.1 87287 loop geom

neighbor        0.3 bin
neigh_modify    delay 0 every 100 check yes

###################################################################
# Pair interaction between non-bonded atoms
#
#  Lennard-Jones 12-6 potential with cutoff:
#  potential E=4epsilon[ (sigma/r)^12 - (sigma/r)^6]  for r<r_cut
#
#  1.12246152962189 = 2^(1/6) is the minimum of the potential

pair_style      lj/cut 1.12246152962189

#
#  pair_coeff for lj/cut, specify 4:
#    * atom type interacting with
#    * atom type
#    * epsilon (energy units)
#    * sigma (distance units)
#

pair_coeff      1 1 1.0 1.1

#
#  pair_modify shift yes adds a constant to the potential such
#  that E(r_cut)=0. Forces remains unchanged.
#

pair_modify     shift yes

###################################################
reset_atoms 	id sort yes
Resetting atom IDs ...
Generated 0 of 0 mixed pair_coeff terms from geometric mixing rule
Neighbor list info ...
  update: every = 100 steps, delay = 0 steps, check = yes
  max neighbors/atom: 2000, page size: 100000
  master list distance cutoff = 1.4224615
  ghost atom cutoff = 1.4224615
  binsize = 0.71123076, bins = 16 16 16
  1 neighbor lists, perpetual/occasional/extra = 1 0 0
  (1) pair lj/cut/kk, perpetual
      attributes: half, newton on, kokkos_device
      pair build: half/bin/newton/kk/device
      stencil: half/bin/3d
      bin: kk/device

comm_modify cutoff 6
#comm_style tiled
#balance 1.2 rcb

###
# Set up fixes
###

fix 1 all   nve   ###NVE ensemble
#fix 2 all   langevin   1.0 1.0   2.0   424242   ###Langevin integrator Tstart Tstop 1/friction rndseed

compute ekin all ke
compute epot all pe
variable ekin equal c_ekin
variable epot equal c_epot
variable etot equal c_ekin+c_epot

fix 3 all print 5000 "$(step)  ekin = ${ekin} | epot = ${epot} | etot = ${etot}" screen yes

compute q all property/atom quatw quati quatj quatk
compute diameter all property/atom shapex shapey shapez
dump 1 all custom 5000 dump.polymer id type x y z c_q[1] c_q[2] c_q[3] c_q[4] c_diameter[1] c_diameter[2] c_diameter[3]
dump_modify 1 colname c_q[1] quatw colname c_q[2] quati colname c_q[3] quatj colname c_q[4] quatk

###################################################

timestep 0.0001 #0.012

run 100000
Generated 0 of 0 mixed pair_coeff terms from geometric mixing rule
0  ekin = 149.85 | epot = 1172.2416240292 | etot = 1322.0916240292
Per MPI rank memory allocation (min/avg/max) = 5.971 | 5.971 | 5.971 Mbytes
   Step          Temp          E_pair         E_mol          TotEng         Press     
         0   0.1            1.1722416      0              1.3220916      17.886531    
5000  ekin = 816.68787420473 | epot = 505.420367013683 | etot = 1322.10824121841
10000  ekin = 837.502255868448 | epot = 484.554538412688 | etot = 1322.05679428114
15000  ekin = 852.573102712991 | epot = 469.541500407759 | etot = 1322.11460312075
20000  ekin = 859.744855659491 | epot = 462.331602412764 | etot = 1322.07645807225
25000  ekin = 863.644391296011 | epot = 458.398585827048 | etot = 1322.04297712306
30000  ekin = 888.52290827715 | epot = 433.543311608681 | etot = 1322.06621988583
35000  ekin = 845.382710204339 | epot = 476.660849329143 | etot = 1322.04355953348
40000  ekin = 881.90849256203 | epot = 440.190875381954 | etot = 1322.09936794398
45000  ekin = 898.955113168541 | epot = 423.295525649713 | etot = 1322.25063881825
50000  ekin = 884.694798849276 | epot = 437.601668669175 | etot = 1322.29646751845
55000  ekin = 876.857653238478 | epot = 445.428298747213 | etot = 1322.28595198569
60000  ekin = 872.585113035322 | epot = 449.67395231769 | etot = 1322.25906535301
65000  ekin = 881.497906913242 | epot = 440.825984732841 | etot = 1322.32389164608
70000  ekin = 867.505850025155 | epot = 454.797283089662 | etot = 1322.30313311482
75000  ekin = 892.304759462386 | epot = 430.043437915538 | etot = 1322.34819737792
80000  ekin = 853.169282391012 | epot = 469.268516891122 | etot = 1322.43779928213
85000  ekin = 872.857365044707 | epot = 449.596989994947 | etot = 1322.45435503965
90000  ekin = 869.548261135106 | epot = 452.910671952811 | etot = 1322.45893308792
95000  ekin = 901.410351430681 | epot = 421.082303216997 | etot = 1322.49265464768
100000  ekin = 846.636695089617 | epot = 475.85819329539 | etot = 1322.49488838501
    100000   0.56498945     0.47585819     0              1.3224949      6.4546131    
Loop time of 10.6512 on 4 procs for 100000 steps with 1000 atoms

Performance: 81117.395 tau/day, 9388.587 timesteps/s, 9.389 Matom-step/s
69.0% CPU use with 4 MPI tasks x 1 OpenMP threads

MPI task timing breakdown:
Section |  min time  |  avg time  |  max time  |%varavg| %total
---------------------------------------------------------------
Pair    | 0.43607    | 0.44517    | 0.45691    |   1.1 |  4.18
Neigh   | 0.023198   | 0.023367   | 0.023589   |   0.1 |  0.22
Comm    | 8.9143     | 8.9394     | 8.9539     |   0.5 | 83.93
Output  | 0.0084221  | 0.0087192  | 0.0089149  |   0.2 |  0.08
Modify  | 0.43108    | 0.43507    | 0.43917    |   0.6 |  4.08
Other   |            | 0.7995     |            |       |  7.51

Nlocal:            250 ave         254 max         244 min
Histogram: 1 0 0 0 0 0 1 0 1 1
Nghost:         5025.5 ave        5050 max        5013 min
Histogram: 2 0 1 0 0 0 0 0 0 1
Neighs:        1278.75 ave        1317 max        1249 min
Histogram: 2 0 0 0 0 0 0 1 0 1

Total # of neighbors = 5115
Ave neighs/atom = 5.115
Neighbor list builds = 180
Dangerous builds = 0

write_data data_out.* nocoeff
System init for write_data ...
Generated 0 of 0 mixed pair_coeff terms from geometric mixing rule
Total wall time: 0:00:10
