ITEM: TIMESTEP
0
ITEM: NUMBER OF ATOMS
10
ITEM: BOX BOUNDS pp pp pp
-2.0000000000000000e+01 2.0000000000000000e+01
-2.0000000000000000e+01 2.0000000000000000e+01
-2.0000000000000000e+01 2.0000000000000000e+01
ITEM: ATOMS id type x y z quatw quati quatj quatk shapex shapey shapez
1 0 -0.337415 -0.437088 0.645069 1 0 0 0 0.3 0.3 0.7
2 0 -0.321426 -0.713774 1.18174 0.923785 0.382911 0 0 0.5 0.6 0.5
3 0 -0.130364 -0.914714 1.62581 0.923785 0 0.382911 0 0.2 0.5 0.5
8 0 0.329733 0.176576 1.72063 0.57735 0.57735 0.57735 0 0.6 0.4 0.4
9 0 0.60637 0.046826 1.2335 0.57735 0 0.57735 0.57735 0.2 0.3 0.7
10 0 0.800398 -0.364393 0.988403 0 0.57735 0.57735 0.57735 0.5 0.3 0.5
4 0 0.167951 -0.980851 2.08949 0.662366 -0.0281863 0.0229426 0.748298 0.2 0.4 0.3
5 0 0.463704 -0.780335 2.4252 0.360149 0.0513615 0.0724224 0.92866 0.3 0.4 0.2
6 0 -0.446295 0.0906216 2.46689 0.707107 0 0 0.707107 0.5 0.5 0.2
7 0 -0.0337705 0.209798 2.07821 0.707107 0 0.707107 0 0.5 0.2 0.5
ITEM: TIMESTEP
1
ITEM: NUMBER OF ATOMS
10
ITEM: BOX BOUNDS pp pp pp
-2.0000000000000000e+01 2.0000000000000000e+01
-2.0000000000000000e+01 2.0000000000000000e+01
-2.0000000000000000e+01 2.0000000000000000e+01
ITEM: ATOMS id type x y z quatw quati quatj quatk shapex shapey shapez
1 0 -0.337414 -0.437088 0.645068 1 0 0 0 0.3 0.3 0.7
2 0 -0.321426 -0.713774 1.18174 0.923785 0.382911 0 0 0.5 0.6 0.5
3 0 -0.130364 -0.914714 1.62581 0.923785 0 0.382911 0 0.2 0.5 0.5
8 0 0.329732 0.176576 1.72063 0.57735 0.57735 0.57735 0 0.6 0.4 0.4
9 0 0.60637 0.0468259 1.23351 0.57735 0 0.57735 0.57735 0.2 0.3 0.7
10 0 0.800398 -0.364393 0.988403 0 0.57735 0.57735 0.57735 0.5 0.3 0.5
4 0 0.167951 -0.980851 2.08949 0.662366 -0.0281863 0.0229426 0.748298 0.2 0.4 0.3
5 0 0.463704 -0.780335 2.4252 0.360149 0.0513615 0.0724224 0.92866 0.3 0.4 0.2
6 0 -0.446295 0.0906216 2.46689 0.707107 0 0 0.707107 0.5 0.5 0.2
7 0 -0.0337705 0.209799 2.07821 0.707107 0 0.707107 0 0.5 0.2 0.5
ITEM: TIMESTEP
2
ITEM: NUMBER OF ATOMS
10
ITEM: BOX BOUNDS pp pp pp
-2.0000000000000000e+01 2.0000000000000000e+01
-2.0000000000000000e+01 2.0000000000000000e+01
-2.0000000000000000e+01 2.0000000000000000e+01
ITEM: ATOMS id type x y z quatw quati quatj quatk shapex shapey shapez
1 0 -0.337414 -0.437089 0.645068 1 0 0 0 0.3 0.3 0.7
2 0 -0.321426 -0.713774 1.18174 0.923785 0.382911 0 0 0.5 0.6 0.5
3 0 -0.130364 -0.914714 1.62581 0.923785 0 0.382911 0 0.2 0.5 0.5
8 0 0.329732 0.176576 1.72063 0.57735 0.57735 0.57735 0 0.6 0.4 0.4
9 0 0.60637 0.0468258 1.23351 0.57735 0 0.57735 0.57735 0.2 0.3 0.7
10 0 0.800398 -0.364393 0.988403 0 0.57735 0.57735 0.57735 0.5 0.3 0.5
4 0 0.167951 -0.980851 2.08949 0.662366 -0.0281863 0.0229426 0.748298 0.2 0.4 0.3
5 0 0.463704 -0.780335 2.4252 0.360149 0.0513615 0.0724224 0.92866 0.3 0.4 0.2
6 0 -0.446295 0.0906215 2.46689 0.707107 0 0 0.707107 0.5 0.5 0.2
7 0 -0.0337706 0.209799 2.07821 0.707107 0 0.707107 0 0.5 0.2 0.5
ITEM: TIMESTEP
3
ITEM: NUMBER OF ATOMS
10
ITEM: BOX BOUNDS pp pp pp
-2.0000000000000000e+01 2.0000000000000000e+01
-2.0000000000000000e+01 2.0000000000000000e+01
-2.0000000000000000e+01 2.0000000000000000e+01
ITEM: ATOMS id type x y z quatw quati quatj quatk shapex shapey shapez
1 0 -0.337414 -0.437089 0.645068 1 0 0 0 0.3 0.3 0.7
2 0 -0.321426 -0.713774 1.18174 0.923785 0.382911 0 0 0.5 0.6 0.5
3 0 -0.130364 -0.914714 1.62581 0.923785 0 0.382911 0 0.2 0.5 0.5
8 0 0.329732 0.176576 1.72063 0.57735 0.57735 0.57735 0 0.6 0.4 0.4
9 0 0.606369 0.0468257 1.23351 0.57735 0 0.57735 0.57735 0.2 0.3 0.7
10 0 0.800399 -0.364393 0.988403 0 0.57735 0.57735 0.57735 0.5 0.3 0.5
4 0 0.167951 -0.980851 2.08949 0.662366 -0.0281863 0.0229426 0.748298 0.2 0.4 0.3
5 0 0.463704 -0.780336 2.4252 0.360149 0.0513615 0.0724224 0.92866 0.3 0.4 0.2
6 0 -0.446295 0.0906215 2.46689 0.707107 0 0 0.707107 0.5 0.5 0.2
7 0 -0.0337706 0.209799 2.07821 0.707107 0 0.707107 0 0.5 0.2 0.5
ITEM: TIMESTEP
4
ITEM: NUMBER OF ATOMS
10
ITEM: BOX BOUNDS pp pp pp
-2.0000000000000000e+01 2.0000000000000000e+01
-2.0000000000000000e+01 2.0000000000000000e+01
-2.0000000000000000e+01 2.0000000000000000e+01
ITEM: ATOMS id type x y z quatw quati quatj quatk shapex shapey shapez
1 0 -0.337413 -0.437089 0.645068 1 0 0 0 0.3 0.3 0.7
2 0 -0.321425 -0.713775 1.18174 0.923785 0.382911 0 0 0.5 0.6 0.5
3 0 -0.130365 -0.914714 1.62581 0.923785 0 0.382911 0 0.2 0.5 0.5
8 0 0.329732 0.176577 1.72063 0.57735 0.57735 0.57735 0 0.6 0.4 0.4
9 0 0.606369 0.0468256 1.23351 0.57735 0 0.57735 0.57735 0.2 0.3 0.7
10 0 0.800399 -0.364393 0.988403 0 0.57735 0.57735 0.57735 0.5 0.3 0.5
4 0 0.16795 -0.980851 2.08949 0.662366 -0.0281863 0.0229426 0.748298 0.2 0.4 0.3
5 0 0.463705 -0.780336 2.4252 0.360149 0.0513615 0.0724224 0.92866 0.3 0.4 0.2
6 0 -0.446295 0.0906214 2.46689 0.707107 0 0 0.707107 0.5 0.5 0.2
7 0 -0.0337706 0.209799 2.07821 0.707107 0 0.707107 0 0.5 0.2 0.5
ITEM: TIMESTEP
5
ITEM: NUMBER OF ATOMS
10
ITEM: BOX BOUNDS pp pp pp
-2.0000000000000000e+01 2.0000000000000000e+01
-2.0000000000000000e+01 2.0000000000000000e+01
-2.0000000000000000e+01 2.0000000000000000e+01
ITEM: ATOMS id type x y z quatw quati quatj quatk shapex shapey shapez
1 0 -0.337413 -0.437089 0.645068 1 0 0 0 0.3 0.3 0.7
2 0 -0.321425 -0.713775 1.18174 0.923785 0.382911 0 0 0.5 0.6 0.5
3 0 -0.130365 -0.914714 1.62581 0.923785 0 0.382911 0 0.2 0.5 0.5
8 0 0.329732 0.176577 1.72063 0.57735 0.57735 0.57735 0 0.6 0.4 0.4
9 0 0.606369 0.0468256 1.23351 0.57735 0 0.57735 0.57735 0.2 0.3 0.7
10 0 0.800399 -0.364394 0.988403 0 0.57735 0.57735 0.57735 0.5 0.3 0.5
4 0 0.16795 -0.98085 2.08949 0.662366 -0.0281863 0.0229426 0.748298 0.2 0.4 0.3
5 0 0.463705 -0.780336 2.4252 0.360149 0.0513615 0.0724224 0.92866 0.3 0.4 0.2
6 0 -0.446295 0.0906214 2.46689 0.707107 0 0 0.707107 0.5 0.5 0.2
7 0 -0.0337706 0.209799 2.07821 0.707107 0 0.707107 0 0.5 0.2 0.5
ITEM: TIMESTEP
6
ITEM: NUMBER OF ATOMS
10
ITEM: BOX BOUNDS pp pp pp
-2.0000000000000000e+01 2.0000000000000000e+01
-2.0000000000000000e+01 2.0000000000000000e+01
-2.0000000000000000e+01 2.0000000000000000e+01
ITEM: ATOMS id type x y z quatw quati quatj quatk shapex shapey shapez
1 0 -0.337413 -0.437089 0.645068 1 0 0 0 0.3 0.3 0.7
2 0 -0.321425 -0.713775 1.18174 0.923785 0.382911 0 0 0.5 0.6 0.5
3 0 -0.130365 -0.914714 1.62581 0.923785 0 0.382911 0 0.2 0.5 0.5
8 0 0.329732 0.176577 1.72064 0.57735 0.57735 0.57735 0 0.6 0.4 0.4
9 0 0.606369 0.0468255 1.23351 0.57735 0 0.57735 0.57735 0.2 0.3 0.7
10 0 0.800399 -0.364394 0.988403 0 0.57735 0.57735 0.57735 0.5 0.3 0.5
4 0 0.16795 -0.98085 2.08949 0.662366 -0.0281863 0.0229426 0.748298 0.2 0.4 0.3
5 0 0.463705 -0.780336 2.4252 0.360149 0.0513615 0.0724224 0.92866 0.3 0.4 0.2
6 0 -0.446295 0.0906213 2.46689 0.707107 0 0 0.707107 0.5 0.5 0.2
7 0 -0.0337706 0.209799 2.07821 0.707107 0 0.707107 0 0.5 0.2 0.5
ITEM: TIMESTEP
7
ITEM: NUMBER OF ATOMS
10
ITEM: BOX BOUNDS pp pp pp
-2.0000000000000000e+01 2.0000000000000000e+01
-2.0000000000000000e+01 2.0000000000000000e+01
-2.0000000000000000e+01 2.0000000000000000e+01
ITEM: ATOMS id type x y z quatw quati quatj quatk shapex shapey shapez
1 0 -0.337412 -0.437089 0.645068 1 0 0 0 0.3 0.3 0.7
2 0 -0.321425 -0.713775 1.18174 0.923785 0.382911 0 0 0.5 0.6 0.5
3 0 -0.130365 -0.914714 1.62581 0.923785 0 0.382911 0 0.2 0.5 0.5
8 0 0.329732 0.176577 1.72064 0.57735 0.57735 0.57735 0 0.6 0.4 0.4
9 0 0.606369 0.0468254 1.23351 0.57735 0 0.57735 0.57735 0.2 0.3 0.7
10 0 0.800399 -0.364394 0.988403 0 0.57735 0.57735 0.57735 0.5 0.3 0.5
4 0 0.16795 -0.98085 2.08949 0.662366 -0.0281863 0.0229426 0.748298 0.2 0.4 0.3
5 0 0.463705 -0.780337 2.4252 0.360149 0.0513615 0.0724224 0.92866 0.3 0.4 0.2
6 0 -0.446295 0.0906213 2.46689 0.707107 0 0 0.707107 0.5 0.5 0.2
7 0 -0.0337706 0.209799 2.07821 0.707107 0 0.707107 0 0.5 0.2 0.5
ITEM: TIMESTEP
8
ITEM: NUMBER OF ATOMS
10
ITEM: BOX BOUNDS pp pp pp
-2.0000000000000000e+01 2.0000000000000000e+01
-2.0000000000000000e+01 2.0000000000000000e+01
-2.0000000000000000e+01 2.0000000000000000e+01
ITEM: ATOMS id type x y z quatw quati quatj quatk shapex shapey shapez
1 0 -0.337412 -0.437089 0.645068 1 0 0 0 0.3 0.3 0.7
2 0 -0.321425 -0.713775 1.18174 0.923785 0.382911 0 0 0.5 0.6 0.5
3 0 -0.130365 -0.914714 1.62581 0.923785 0 0.382911 0 0.2 0.5 0.5
8 0 0.329732 0.176577 1.72064 0.57735 0.57735 0.57735 0 0.6 0.4 0.4
9 0 0.606369 0.0468253 1.23351 0.57735 0 0.57735 0.57735 0.2 0.3 0.7
10 0 0.800399 -0.364394 0.988404 0 0.57735 0.57735 0.57735 0.5 0.3 0.5
4 0 0.16795 -0.98085 2.08949 0.662366 -0.0281863 0.0229426 0.748298 0.2 0.4 0.3
5 0 0.463705 -0.780337 2.4252 0.360149 0.0513615 0.0724224 0.92866 0.3 0.4 0.2
6 0 -0.446295 0.0906212 2.46689 0.707107 0 0 0.707107 0.5 0.5 0.2
7 0 -0.0337706 0.209799 2.07821 0.707107 0 0.707107 0 0.5 0.2 0.5
ITEM: TIMESTEP
9
ITEM: NUMBER OF ATOMS
10
ITEM: BOX BOUNDS pp pp pp
-2.0000000000000000e+01 2.0000000000000000e+01
-2.0000000000000000e+01 2.0000000000000000e+01
-2.0000000000000000e+01 2.0000000000000000e+01
ITEM: ATOMS id type x y z quatw quati quatj quatk shapex shapey shapez
1 0 -0.337412 -0.43709 0.645068 1 0 0 0 0.3 0.3 0.7
2 0 -0.321425 -0.713775 1.18174 0.923785 0.382911 0 0 0.5 0.6 0.5
3 0 -0.130366 -0.914714 1.62581 0.923785 0 0.382911 0 0.2 0.5 0.5
8 0 0.329732 0.176577 1.72064 0.57735 0.57735 0.57735 0 0.6 0.4 0.4
9 0 0.606368 0.0468252 1.23351 0.57735 0 0.57735 0.57735 0.2 0.3 0.7
10 0 0.8004 -0.364394 0.988404 0 0.57735 0.57735 0.57735 0.5 0.3 0.5
4 0 0.167949 -0.98085 2.08949 0.662366 -0.0281863 0.0229426 0.748298 0.2 0.4 0.3
5 0 0.463705 -0.780337 2.4252 0.360149 0.0513615 0.0724224 0.92866 0.3 0.4 0.2
6 0 -0.446295 0.0906212 2.46689 0.707107 0 0 0.707107 0.5 0.5 0.2
7 0 -0.0337706 0.209799 2.07821 0.707107 0 0.707107 0 0.5 0.2 0.5
ITEM: TIMESTEP
10
ITEM: NUMBER OF ATOMS
10
ITEM: BOX BOUNDS pp pp pp
-2.0000000000000000e+01 2.0000000000000000e+01
-2.0000000000000000e+01 2.0000000000000000e+01
-2.0000000000000000e+01 2.0000000000000000e+01
ITEM: ATOMS id type x y z quatw quati quatj quatk shapex shapey shapez
1 0 -0.337411 -0.43709 0.645068 1 0 0 0 0.3 0.3 0.7
2 0 -0.321424 -0.713775 1.18174 0.923785 0.382911 0 0 0.5 0.6 0.5
3 0 -0.130366 -0.914714 1.62581 0.923785 0 0.382911 0 0.2 0.5 0.5
8 0 0.329732 0.176578 1.72064 0.57735 0.57735 0.57735 0 0.6 0.4 0.4
9 0 0.606368 0.0468252 1.23351 0.57735 0 0.57735 0.57735 0.2 0.3 0.7
10 0 0.8004 -0.364394 0.988404 0 0.57735 0.57735 0.57735 0.5 0.3 0.5
4 0 0.167949 -0.98085 2.08949 0.662366 -0.0281863 0.0229426 0.748298 0.2 0.4 0.3
5 0 0.463705 -0.780337 2.4252 0.360149 0.0513615 0.0724224 0.92866 0.3 0.4 0.2
6 0 -0.446295 0.0906211 2.46689 0.707107 0 0 0.707107 0.5 0.5 0.2
7 0 -0.0337706 0.209799 2.07821 0.707107 0 0.707107 0 0.5 0.2 0.5
ITEM: TIMESTEP
11
ITEM: NUMBER OF ATOMS
10
ITEM: BOX BOUNDS pp pp pp
-2.0000000000000000e+01 2.0000000000000000e+01
-2.0000000000000000e+01 2.0000000000000000e+01
-2.0000000000000000e+01 2.0000000000000000e+01
ITEM: ATOMS id type x y z quatw quati quatj quatk shapex shapey shapez
1 0 -0.337411 -0.43709 0.645068 1 0 0 0 0.3 0.3 0.7
2 0 -0.321424 -0.713775 1.18174 0.923785 0.382911 0 0 0.5 0.6 0.5
3 0 -0.130366 -0.914714 1.62581 0.923785 0 0.382911 0 0.2 0.5 0.5
8 0 0.329732 0.176578 1.72064 0.57735 0.57735 0.57735 0 0.6 0.4 0.4
9 0 0.606368 0.0468251 1.23351 0.57735 0 0.57735 0.57735 0.2 0.3 0.7
10 0 0.8004 -0.364394 0.988404 0 0.57735 0.57735 0.57735 0.5 0.3 0.5
4 0 0.167949 -0.98085 2.08949 0.662366 -0.0281863 0.0229426 0.748298 0.2 0.4 0.3
5 0 0.463705 -0.780338 2.4252 0.360149 0.0513615 0.0724224 0.92866 0.3 0.4 0.2
6 0 -0.446295 0.0906211 2.46689 0.707107 0 0 0.707107 0.5 0.5 0.2
7 0 -0.0337706 0.209799 2.07821 0.707107 0 0.707107 0 0.5 0.2 0.5
ITEM: TIMESTEP
12
ITEM: NUMBER OF ATOMS
10
ITEM: BOX BOUNDS pp pp pp
-2.0000000000000000e+01 2.0000000000000000e+01
-2.0000000000000000e+01 2.0000000000000000e+01
-2.0000000000000000e+01 2.0000000000000000e+01
ITEM: ATOMS id type x y z quatw quati quatj quatk shapex shapey shapez
1 0 -0.337411 -0.43709 0.645068 1 0 0 0 0.3 0.3 0.7
2 0 -0.321424 -0.713775 1.18174 0.923785 0.382911 0 0 0.5 0.6 0.5
3 0 -0.130366 -0.914713 1.62581 0.923785 0 0.382911 0 0.2 0.5 0.5
8 0 0.329732 0.176578 1.72064 0.57735 0.57735 0.57735 0 0.6 0.4 0.4
9 0 0.606368 0.046825 1.23351 0.57735 0 0.57735 0.57735 0.2 0.3 0.7
10 0 0.8004 -0.364394 0.988404 0 0.57735 0.57735 0.57735 0.5 0.3 0.5
4 0 0.167949 -0.98085 2.08949 0.662366 -0.0281863 0.0229426 0.748298 0.2 0.4 0.3
5 0 0.463705 -0.780338 2.4252 0.360149 0.0513615 0.0724224 0.92866 0.3 0.4 0.2
6 0 -0.446295 0.090621 2.46689 0.707107 0 0 0.707107 0.5 0.5 0.2
7 0 -0.0337706 0.209799 2.07821 0.707107 0 0.707107 0 0.5 0.2 0.5
ITEM: TIMESTEP
13
ITEM: NUMBER OF ATOMS
10
ITEM: BOX BOUNDS pp pp pp
-2.0000000000000000e+01 2.0000000000000000e+01
-2.0000000000000000e+01 2.0000000000000000e+01
-2.0000000000000000e+01 2.0000000000000000e+01
ITEM: ATOMS id type x y z quatw quati quatj quatk shapex shapey shapez
1 0 -0.33741 -0.43709 0.645068 1 0 0 0 0.3 0.3 0.7
2 0 -0.321424 -0.713775 1.18174 0.923785 0.382911 0 0 0.5 0.6 0.5
3 0 -0.130367 -0.914713 1.62581 0.923785 0 0.382911 0 0.2 0.5 0.5
8 0 0.329732 0.176578 1.72064 0.57735 0.57735 0.57735 0 0.6 0.4 0.4
9 0 0.606368 0.0468249 1.23351 0.57735 0 0.57735 0.57735 0.2 0.3 0.7
10 0 0.8004 -0.364394 0.988404 0 0.57735 0.57735 0.57735 0.5 0.3 0.5
4 0 0.167948 -0.98085 2.08949 0.662366 -0.0281863 0.0229426 0.748298 0.2 0.4 0.3
5 0 0.463705 -0.780338 2.4252 0.360149 0.0513615 0.0724224 0.92866 0.3 0.4 0.2
6 0 -0.446295 0.090621 2.46689 0.707107 0 0 0.707107 0.5 0.5 0.2
7 0 -0.0337706 0.209799 2.07821 0.707107 0 0.707107 0 0.5 0.2 0.5
ITEM: TIMESTEP
14
ITEM: NUMBER OF ATOMS
10
ITEM: BOX BOUNDS pp pp pp
-2.0000000000000000e+01 2.0000000000000000e+01
-2.0000000000000000e+01 2.0000000000000000e+01
-2.0000000000000000e+01 2.0000000000000000e+01
ITEM: ATOMS id type x y z quatw quati quatj quatk shapex shapey shapez
1 0 -0.33741 -0.43709 0.645068 1 0 0 0 0.3 0.3 0.7
2 0 -0.321424 -0.713775 1.18174 0.923785 0.382911 0 0 0.5 0.6 0.5
3 0 -0.130367 -0.914713 1.62581 0.923785 0 0.382911 0 0.2 0.5 0.5
8 0 0.329732 0.176578 1.72064 0.57735 0.57735 0.57735 0 0.6 0.4 0.4
9 0 0.606367 0.0468249 1.23351 0.57735 0 0.57735 0.57735 0.2 0.3 0.7
10 0 0.800401 -0.364395 0.988404 0 0.57735 0.57735 0.57735 0.5 0.3 0.5
4 0 0.167948 -0.98085 2.08949 0.662366 -0.0281863 0.0229426 0.748298 0.2 0.4 0.3
5 0 0.463705 -0.780338 2.4252 0.360149 0.0513615 0.0724224 0.92866 0.3 0.4 0.2
6 0 -0.446295 0.0906209 2.46689 0.707107 0 0 0.707107 0.5 0.5 0.2
7 0 -0.0337707 0.209799 2.07821 0.707107 0 0.707107 0 0.5 0.2 0.5
ITEM: TIMESTEP
15
ITEM: NUMBER OF ATOMS
10
ITEM: BOX BOUNDS pp pp pp
-2.0000000000000000e+01 2.0000000000000000e+01
-2.0000000000000000e+01 2.0000000000000000e+01
-2.0000000000000000e+01 2.0000000000000000e+01
ITEM: ATOMS id type x y z quatw quati quatj quatk shapex shapey shapez
1 0 -0.33741 -0.43709 0.645068 1 0 0 0 0.3 0.3 0.7
2 0 -0.321424 -0.713775 1.18174 0.923785 0.382911 0 0 0.5 0.6 0.5
3 0 -0.130367 -0.914713 1.62581 0.923785 0 0.382911 0 0.2 0.5 0.5
8 0 0.329731 0.176578 1.72064 0.57735 0.57735 0.57735 0 0.6 0.4 0.4
9 0 0.606367 0.0468248 1.23351 0.57735 0 0.57735 0.57735 0.2 0.3 0.7
10 0 0.800401 -0.364395 0.988404 0 0.57735 0.57735 0.57735 0.5 0.3 0.5
4 0 0.167948 -0.98085 2.08949 0.662366 -0.0281863 0.0229426 0.748298 0.2 0.4 0.3
5 0 0.463705 -0.780339 2.4252 0.360149 0.0513615 0.0724224 0.92866 0.3 0.4 0.2
6 0 -0.446294 0.0906209 2.46689 0.707107 0 0 0.707107 0.5 0.5 0.2
7 0 -0.0337707 0.209799 2.07821 0.707107 0 0.707107 0 0.5 0.2 0.5
ITEM: TIMESTEP
16
ITEM: NUMBER OF ATOMS
10
ITEM: BOX BOUNDS pp pp pp
-2.0000000000000000e+01 2.0000000000000000e+01
-2.0000000000000000e+01 2.0000000000000000e+01
-2.0000000000000000e+01 2.0000000000000000e+01
ITEM: ATOMS id type x y z quatw quati quatj quatk shapex shapey shapez
1 0 -0.337409 -0.437091 0.645068 1 0 0 0 0.3 0.3 0.7
2 0 -0.321423 -0.713775 1.18174 0.923785 0.382911 0 0 0.5 0.6 0.5
3 0 -0.130367 -0.914713 1.62581 0.923785 0 0.382911 0 0.2 0.5 0.5
8 0 0.329731 0.176579 1.72064 0.57735 0.57735 0.57735 0 0.6 0.4 0.4
9 0 0.606367 0.0468247 1.23351 0.57735 0 0.57735 0.57735 0.2 0.3 0.7
10 0 0.800401 -0.364395 0.988405 0 0.57735 0.57735 0.57735 0.5 0.3 0.5
4 0 0.167948 -0.98085 2.08949 0.662366 -0.0281863 0.0229426 0.748298 0.2 0.4 0.3
5 0 0.463706 -0.780339 2.4252 0.360149 0.0513615 0.0724224 0.92866 0.3 0.4 0.2
6 0 -0.446294 0.0906209 2.46689 0.707107 0 0 0.707107 0.5 0.5 0.2
7 0 -0.0337707 0.209799 2.07821 0.707107 0 0.707107 0 0.5 0.2 0.5
ITEM: TIMESTEP
17
ITEM: NUMBER OF ATOMS
10
ITEM: BOX BOUNDS pp pp pp
-2.0000000000000000e+01 2.0000000000000000e+01
-2.0000000000000000e+01 2.0000000000000000e+01
-2.0000000000000000e+01 2.0000000000000000e+01
ITEM: ATOMS id type x y z quatw quati quatj quatk shapex shapey shapez
1 0 -0.337409 -0.437091 0.645068 1 0 0 0 0.3 0.3 0.7
2 0 -0.321423 -0.713775 1.18174 0.923785 0.382911 0 0 0.5 0.6 0.5
3 0 -0.130368 -0.914713 1.62581 0.923785 0 0.382911 0 0.2 0.5 0.5
8 0 0.329731 0.176579 1.72064 0.57735 0.57735 0.57735 0 0.6 0.4 0.4
9 0 0.606367 0.0468246 1.23351 0.57735 0 0.57735 0.57735 0.2 0.3 0.7
10 0 0.800401 -0.364395 0.988405 0 0.57735 0.57735 0.57735 0.5 0.3 0.5
4 0 0.167948 -0.98085 2.08949 0.662366 -0.0281863 0.0229426 0.748298 0.2 0.4 0.3
5 0 0.463706 -0.780339 2.4252 0.360149 0.0513615 0.0724224 0.92866 0.3 0.4 0.2
6 0 -0.446294 0.0906208 2.46689 0.707107 0 0 0.707107 0.5 0.5 0.2
7 0 -0.0337707 0.209799 2.07821 0.707107 0 0.707107 0 0.5 0.2 0.5
ITEM: TIMESTEP
18
ITEM: NUMBER OF ATOMS
10
ITEM: BOX BOUNDS pp pp pp
-2.0000000000000000e+01 2.0000000000000000e+01
-2.0000000000000000e+01 2.0000000000000000e+01
-2.0000000000000000e+01 2.0000000000000000e+01
ITEM: ATOMS id type x y z quatw quati quatj quatk shapex shapey shapez
1 0 -0.337409 -0.437091 0.645068 1 0 0 0 0.3 0.3 0.7
2 0 -0.321423 -0.713775 1.18174 0.923785 0.382911 0 0 0.5 0.6 0.5
3 0 -0.130368 -0.914713 1.62581 0.923785 0 0.382911 0 0.2 0.5 0.5
8 0 0.329731 0.176579 1.72064 0.57735 0.57735 0.57735 0 0.6 0.4 0.4
9 0 0.606367 0.0468245 1.23351 0.57735 0 0.57735 0.57735 0.2 0.3 0.7
10 0 0.800401 -0.364395 0.988405 0 0.57735 0.57735 0.57735 0.5 0.3 0.5
4 0 0.167947 -0.98085 2.08949 0.662366 -0.0281863 0.0229426 0.748298 0.2 0.4 0.3
5 0 0.463706 -0.780339 2.4252 0.360149 0.0513615 0.0724224 0.92866 0.3 0.4 0.2
6 0 -0.446294 0.0906208 2.46689 0.707107 0 0 0.707107 0.5 0.5 0.2
7 0 -0.0337707 0.209799 2.07821 0.707107 0 0.707107 0 0.5 0.2 0.5
ITEM: TIMESTEP
19
ITEM: NUMBER OF ATOMS
10
ITEM: BOX BOUNDS pp pp pp
-2.0000000000000000e+01 2.0000000000000000e+01
-2.0000000000000000e+01 2.0000000000000000e+01
-2.0000000000000000e+01 2.0000000000000000e+01
ITEM: ATOMS id type x y z quatw quati quatj quatk shapex shapey shapez
1 0 -0.337408 -0.437091 0.645068 1 0 0 0 0.3 0.3 0.7
2 0 -0.321423 -0.713775 1.18174 0.923785 0.382911 0 0 0.5 0.6 0.5
3 0 -0.130368 -0.914713 1.62581 0.923785 0 0.382911 0 0.2 0.5 0.5
8 0 0.329731 0.176579 1.72064 0.57735 0.57735 0.57735 0 0.6 0.4 0.4
9 0 0.606367 0.0468245 1.23351 0.57735 0 0.57735 0.57735 0.2 0.3 0.7
10 0 0.800402 -0.364395 0.988405 0 0.57735 0.57735 0.57735 0.5 0.3 0.5
4 0 0.167947 -0.98085 2.08949 0.662366 -0.0281863 0.0229426 0.748298 0.2 0.4 0.3
5 0 0.463706 -0.78034 2.4252 0.360149 0.0513615 0.0724224 0.92866 0.3 0.4 0.2
6 0 -0.446294 0.0906207 2.46689 0.707107 0 0 0.707107 0.5 0.5 0.2
7 0 -0.0337707 0.209799 2.07821 0.707107 0 0.707107 0 0.5 0.2 0.5
ITEM: TIMESTEP
20
ITEM: NUMBER OF ATOMS
10
ITEM: BOX BOUNDS pp pp pp
-2.0000000000000000e+01 2.0000000000000000e+01
-2.0000000000000000e+01 2.0000000000000000e+01
-2.0000000000000000e+01 2.0000000000000000e+01
ITEM: ATOMS id type x y z quatw quati quatj quatk shapex shapey shapez
1 0 -0.337408 -0.437091 0.645068 1 0 0 0 0.3 0.3 0.7
2 0 -0.321423 -0.713775 1.18174 0.923785 0.382911 0 0 0.5 0.6 0.5
3 0 -0.130368 -0.914713 1.62581 0.923785 0 0.382911 0 0.2 0.5 0.5
8 0 0.329731 0.176579 1.72064 0.57735 0.57735 0.57735 0 0.6 0.4 0.4
9 0 0.606366 0.0468244 1.23351 0.57735 0 0.57735 0.57735 0.2 0.3 0.7
10 0 0.800402 -0.364395 0.988405 0 0.57735 0.57735 0.57735 0.5 0.3 0.5
4 0 0.167947 -0.98085 2.08949 0.662366 -0.0281863 0.0229426 0.748298 0.2 0.4 0.3
5 0 0.463706 -0.78034 2.4252 0.360149 0.0513615 0.0724224 0.92866 0.3 0.4 0.2
6 0 -0.446294 0.0906207 2.46689 0.707107 0 0 0.707107 0.5 0.5 0.2
7 0 -0.0337707 0.209799 2.07821 0.707107 0 0.707107 0 0.5 0.2 0.5
ITEM: TIMESTEP
21
ITEM: NUMBER OF ATOMS
10
ITEM: BOX BOUNDS pp pp pp
-2.0000000000000000e+01 2.0000000000000000e+01
-2.0000000000000000e+01 2.0000000000000000e+01
-2.0000000000000000e+01 2.0000000000000000e+01
ITEM: ATOMS id type x y z quatw quati quatj quatk shapex shapey shapez
1 0 -0.337408 -0.437091 0.645068 1 0 0 0 0.3 0.3 0.7
2 0 -0.321423 -0.713775 1.18174 0.923785 0.382911 0 0 0.5 0.6 0.5
3 0 -0.130368 -0.914713 1.62581 0.923785 0 0.382911 0 0.2 0.5 0.5
8 0 0.329731 0.176579 1.72064 0.57735 0.57735 0.57735 0 0.6 0.4 0.4
9 0 0.606366 0.0468243 1.23351 0.57735 0 0.57735 0.57735 0.2 0.3 0.7
10 0 0.800402 -0.364395 0.988405 0 0.57735 0.57735 0.57735 0.5 0.3 0.5
4 0 0.167947 -0.98085 2.08949 0.662366 -0.0281863 0.0229426 0.748298 0.2 0.4 0.3
5 0 0.463706 -0.78034 2.4252 0.360149 0.0513615 0.0724224 0.92866 0.3 0.4 0.2
6 0 -0.446294 0.0906206 2.46689 0.707107 0 0 0.707107 0.5 0.5 0.2
7 0 -0.0337707 0.209799 2.07821 0.707107 0 0.707107 0 0.5 0.2 0.5
ITEM: TIMESTEP
22
ITEM: NUMBER OF ATOMS
10
ITEM: BOX BOUNDS pp pp pp
-2.0000000000000000e+01 2.0000000000000000e+01
-2.0000000000000000e+01 2.0000000000000000e+01
-2.0000000000000000e+01 2.0000000000000000e+01
ITEM: ATOMS id type x y z quatw quati quatj quatk shapex shapey shapez
1 0 -0.337407 -0.437091 0.645068 1 0 0 0 0.3 0.3 0.7
2 0 -0.321422 -0.713775 1.18174 0.923785 0.382911 0 0 0.5 0.6 0.5
3 0 -0.130369 -0.914713 1.62581 0.923785 0 0.382911 0 0.2 0.5 0.5
8 0 0.329731 0.17658 1.72064 0.57735 0.57735 0.57735 0 0.6 0.4 0.4
9 0 0.606366 0.0468242 1.23351 0.57735 0 0.57735 0.57735 0.2 0.3 0.7
10 0 0.800402 -0.364395 0.988405 0 0.57735 0.57735 0.57735 0.5 0.3 0.5
4 0 0.167946 -0.98085 2.08949 0.662366 -0.0281863 0.0229426 0.748298 0.2 0.4 0.3
5 0 0.463706 -0.78034 2.4252 0.360149 0.0513615 0.0724224 0.92866 0.3 0.4 0.2
6 0 -0.446294 0.0906206 2.46689 0.707107 0 0 0.707107 0.5 0.5 0.2
7 0 -0.0337707 0.2098 2.07821 0.707107 0 0.707107 0 0.5 0.2 0.5
ITEM: TIMESTEP
23
ITEM: NUMBER OF ATOMS
10
ITEM: BOX BOUNDS pp pp pp
-2.0000000000000000e+01 2.0000000000000000e+01
-2.0000000000000000e+01 2.0000000000000000e+01
-2.0000000000000000e+01 2.0000000000000000e+01
ITEM: ATOMS id type x y z quatw quati quatj quatk shapex shapey shapez
1 0 -0.337407 -0.437091 0.645068 1 0 0 0 0.3 0.3 0.7
2 0 -0.321422 -0.713775 1.18174 0.923785 0.382911 0 0 0.5 0.6 0.5
3 0 -0.130369 -0.914713 1.62581 0.923785 0 0.382911 0 0.2 0.5 0.5
8 0 0.329731 0.17658 1.72064 0.57735 0.57735 0.57735 0 0.6 0.4 0.4
9 0 0.606366 0.0468242 1.23351 0.57735 0 0.57735 0.57735 0.2 0.3 0.7
10 0 0.800402 -0.364395 0.988405 0 0.57735 0.57735 0.57735 0.5 0.3 0.5
4 0 0.167946 -0.98085 2.08949 0.662366 -0.0281863 0.0229426 0.748298 0.2 0.4 0.3
5 0 0.463706 -0.780341 2.4252 0.360149 0.0513615 0.0724224 0.92866 0.3 0.4 0.2
6 0 -0.446294 0.0906205 2.46689 0.707107 0 0 0.707107 0.5 0.5 0.2
7 0 -0.0337707 0.2098 2.07821 0.707107 0 0.707107 0 0.5 0.2 0.5
ITEM: TIMESTEP
24
ITEM: NUMBER OF ATOMS
10
ITEM: BOX BOUNDS pp pp pp
-2.0000000000000000e+01 2.0000000000000000e+01
-2.0000000000000000e+01 2.0000000000000000e+01
-2.0000000000000000e+01 2.0000000000000000e+01
ITEM: ATOMS id type x y z quatw quati quatj quatk shapex shapey shapez
1 0 -0.337407 -0.437092 0.645068 1 0 0 0 0.3 0.3 0.7
2 0 -0.321422 -0.713775 1.18174 0.923785 0.382911 0 0 0.5 0.6 0.5
3 0 -0.130369 -0.914712 1.62581 0.923785 0 0.382911 0 0.2 0.5 0.5
8 0 0.329731 0.17658 1.72064 0.57735 0.57735 0.57735 0 0.6 0.4 0.4
9 0 0.606366 0.0468241 1.23351 0.57735 0 0.57735 0.57735 0.2 0.3 0.7
10 0 0.800402 -0.364396 0.988406 0 0.57735 0.57735 0.57735 0.5 0.3 0.5
4 0 0.167946 -0.98085 2.08949 0.662366 -0.0281863 0.0229426 0.748298 0.2 0.4 0.3
5 0 0.463706 -0.780341 2.4252 0.360149 0.0513615 0.0724224 0.92866 0.3 0.4 0.2
6 0 -0.446294 0.0906205 2.46689 0.707107 0 0 0.707107 0.5 0.5 0.2
7 0 -0.0337707 0.2098 2.07821 0.707107 0 0.707107 0 0.5 0.2 0.5
ITEM: TIMESTEP
25
ITEM: NUMBER OF ATOMS
10
ITEM: BOX BOUNDS pp pp pp
-2.0000000000000000e+01 2.0000000000000000e+01
-2.0000000000000000e+01 2.0000000000000000e+01
-2.0000000000000000e+01 2.0000000000000000e+01
ITEM: ATOMS id type x y z quatw quati quatj quatk shapex shapey shapez
1 0 -0.337407 -0.437092 0.645068 1 0 0 0 0.3 0.3 0.7
2 0 -0.321422 -0.713776 1.18174 0.923785 0.382911 0 0 0.5 0.6 0.5
3 0 -0.130369 -0.914712 1.62581 0.923785 0 0.382911 0 0.2 0.5 0.5
8 0 0.329731 0.17658 1.72064 0.57735 0.57735 0.57735 0 0.6 0.4 0.4
9 0 0.606366 0.046824 1.23351 0.57735 0 0.57735 0.57735 0.2 0.3 0.7
10 0 0.800403 -0.364396 0.988406 0 0.57735 0.57735 0.57735 0.5 0.3 0.5
4 0 0.167946 -0.98085 2.08949 0.662366 -0.0281863 0.0229426 0.748298 0.2 0.4 0.3
5 0 0.463706 -0.780341 2.4252 0.360149 0.0513615 0.0724224 0.92866 0.3 0.4 0.2
6 0 -0.446294 0.0906204 2.46689 0.707107 0 0 0.707107 0.5 0.5 0.2
7 0 -0.0337707 0.2098 2.07821 0.707107 0 0.707107 0 0.5 0.2 0.5
ITEM: TIMESTEP
26
ITEM: NUMBER OF ATOMS
10
ITEM: BOX BOUNDS pp pp pp
-2.0000000000000000e+01 2.0000000000000000e+01
-2.0000000000000000e+01 2.0000000000000000e+01
-2.0000000000000000e+01 2.0000000000000000e+01
ITEM: ATOMS id type x y z quatw quati quatj quatk shapex shapey shapez
1 0 -0.337406 -0.437092 0.645068 1 0 0 0 0.3 0.3 0.7
2 0 -0.321422 -0.713776 1.18174 0.923785 0.382911 0 0 0.5 0.6 0.5
3 0 -0.13037 -0.914712 1.62581 0.923785 0 0.382911 0 0.2 0.5 0.5
8 0 0.329731 0.17658 1.72064 0.57735 0.57735 0.57735 0 0.6 0.4 0.4
9 0 0.606365 0.0468239 1.23351 0.57735 0 0.57735 0.57735 0.2 0.3 0.7
10 0 0.800403 -0.364396 0.988406 0 0.57735 0.57735 0.57735 0.5 0.3 0.5
4 0 0.167946 -0.980849 2.08949 0.662366 -0.0281863 0.0229426 0.748298 0.2 0.4 0.3
5 0 0.463706 -0.780341 2.4252 0.360149 0.0513615 0.0724224 0.92866 0.3 0.4 0.2
6 0 -0.446294 0.0906204 2.46689 0.707107 0 0 0.707107 0.5 0.5 0.2
7 0 -0.0337708 0.2098 2.07821 0.707107 0 0.707107 0 0.5 0.2 0.5
ITEM: TIMESTEP
27
ITEM: NUMBER OF ATOMS
10
ITEM: BOX BOUNDS pp pp pp
-2.0000000000000000e+01 2.0000000000000000e+01
-2.0000000000000000e+01 2.0000000000000000e+01
-2.0000000000000000e+01 2.0000000000000000e+01
ITEM: ATOMS id type x y z quatw quati quatj quatk shapex shapey shapez
1 0 -0.337406 -0.437092 0.645068 1 0 0 0 0.3 0.3 0.7
2 0 -0.321422 -0.713776 1.18174 0.923785 0.382911 0 0 0.5 0.6 0.5
3 0 -0.13037 -0.914712 1.62581 0.923785 0 0.382911 0 0.2 0.5 0.5
8 0 0.329731 0.176581 1.72064 0.57735 0.57735 0.57735 0 0.6 0.4 0.4
9 0 0.606365 0.0468238 1.23351 0.57735 0 0.57735 0.57735 0.2 0.3 0.7
10 0 0.800403 -0.364396 0.988406 0 0.57735 0.57735 0.57735 0.5 0.3 0.5
4 0 0.167945 -0.980849 2.08949 0.662366 -0.0281863 0.0229426 0.748298 0.2 0.4 0.3
5 0 0.463706 -0.780342 2.4252 0.360149 0.0513615 0.0724224 0.92866 0.3 0.4 0.2
6 0 -0.446294 0.0906203 2.46689 0.707107 0 0 0.707107 0.5 0.5 0.2
7 0 -0.0337708 0.2098 2.07821 0.707107 0 0.707107 0 0.5 0.2 0.5
ITEM: TIMESTEP
28
ITEM: NUMBER OF ATOMS
10
ITEM: BOX BOUNDS pp pp pp
-2.0000000000000000e+01 2.0000000000000000e+01
-2.0000000000000000e+01 2.0000000000000000e+01
-2.0000000000000000e+01 2.0000000000000000e+01
ITEM: ATOMS id type x y z quatw quati quatj quatk shapex shapey shapez
1 0 -0.337406 -0.437092 0.645068 1 0 0 0 0.3 0.3 0.7
2 0 -0.321421 -0.713776 1.18174 0.923785 0.382911 0 0 0.5 0.6 0.5
3 0 -0.13037 -0.914712 1.62581 0.923785 0 0.382911 0 0.2 0.5 0.5
8 0 0.329731 0.176581 1.72064 0.57735 0.57735 0.57735 0 0.6 0.4 0.4
9 0 0.606365 0.0468238 1.23351 0.57735 0 0.57735 0.57735 0.2 0.3 0.7
10 0 0.800403 -0.364396 0.988406 0 0.57735 0.57735 0.57735 0.5 0.3 0.5
4 0 0.167945 -0.980849 2.08949 0.662366 -0.0281863 0.0229426 0.748298 0.2 0.4 0.3
5 0 0.463707 -0.780342 2.4252 0.360149 0.0513615 0.0724224 0.92866 0.3 0.4 0.2
6 0 -0.446294 0.0906203 2.46689 0.707107 0 0 0.707107 0.5 0.5 0.2
7 0 -0.0337708 0.2098 2.07821 0.707107 0 0.707107 0 0.5 0.2 0.5
ITEM: TIMESTEP
29
ITEM: NUMBER OF ATOMS
10
ITEM: BOX BOUNDS pp pp pp
-2.0000000000000000e+01 2.0000000000000000e+01
-2.0000000000000000e+01 2.0000000000000000e+01
-2.0000000000000000e+01 2.0000000000000000e+01
ITEM: ATOMS id type x y z quatw quati quatj quatk shapex shapey shapez
1 0 -0.337405 -0.437092 0.645068 1 0 0 0 0.3 0.3 0.7
2 0 -0.321421 -0.713776 1.18174 0.923785 0.382911 0 0 0.5 0.6 0.5
3 0 -0.13037 -0.914712 1.62581 0.923785 0 0.382911 0 0.2 0.5 0.5
8 0 0.32973 0.176581 1.72064 0.57735 0.57735 0.57735 0 0.6 0.4 0.4
9 0 0.606365 0.0468237 1.23351 0.57735 0 0.57735 0.57735 0.2 0.3 0.7
10 0 0.800403 -0.364396 0.988406 0 0.57735 0.57735 0.57735 0.5 0.3 0.5
4 0 0.167945 -0.980849 2.08949 0.662366 -0.0281863 0.0229426 0.748298 0.2 0.4 0.3
5 0 0.463707 -0.780342 2.4252 0.360149 0.0513615 0.0724224 0.92866 0.3 0.4 0.2
6 0 -0.446294 0.0906202 2.46689 0.707107 0 0 0.707107 0.5 0.5 0.2
7 0 -0.0337708 0.2098 2.07821 0.707107 0 0.707107 0 0.5 0.2 0.5
ITEM: TIMESTEP
30
ITEM: NUMBER OF ATOMS
10
ITEM: BOX BOUNDS pp pp pp
-2.0000000000000000e+01 2.0000000000000000e+01
-2.0000000000000000e+01 2.0000000000000000e+01
-2.0000000000000000e+01 2.0000000000000000e+01
ITEM: ATOMS id type x y z quatw quati quatj quatk shapex shapey shapez
1 0 -0.337405 -0.437092 0.645068 1 0 0 0 0.3 0.3 0.7
2 0 -0.321421 -0.713776 1.18174 0.923785 0.382911 0 0 0.5 0.6 0.5
3 0 -0.130371 -0.914712 1.62581 0.923785 0 0.382911 0 0.2 0.5 0.5
8 0 0.32973 0.176581 1.72064 0.57735 0.57735 0.57735 0 0.6 0.4 0.4
9 0 0.606365 0.0468236 1.23351 0.57735 0 0.57735 0.57735 0.2 0.3 0.7
10 0 0.800404 -0.364396 0.988406 0 0.57735 0.57735 0.57735 0.5 0.3 0.5
4 0 0.167945 -0.980849 2.08949 0.662366 -0.0281863 0.0229426 0.748298 0.2 0.4 0.3
5 0 0.463707 -0.780342 2.4252 0.360149 0.0513615 0.0724224 0.92866 0.3 0.4 0.2
6 0 -0.446294 0.0906202 2.46689 0.707107 0 0 0.707107 0.5 0.5 0.2
7 0 -0.0337708 0.2098 2.07821 0.707107 0 0.707107 0 0.5 0.2 0.5
ITEM: TIMESTEP
31
ITEM: NUMBER OF ATOMS
10
ITEM: BOX BOUNDS pp pp pp
-2.0000000000000000e+01 2.0000000000000000e+01