ITEM: TIMESTEP
0
ITEM: NUMBER OF ATOMS
10
ITEM: BOX BOUNDS pp pp pp
-2.0000000000000000e+01 2.0000000000000000e+01
-2.0000000000000000e+01 2.0000000000000000e+01
-2.0000000000000000e+01 2.0000000000000000e+01
ITEM: ATOMS id type x y z quatw quati quatj quatk shapex shapey shapez
1 1 -0.337415 -0.437088 0.645069 1 0 0 0 0.3 0.3 0.7
2 2 -0.321426 -0.713774 1.18174 0.923785 0.382911 0 0 0.5 0.6 0.5
3 3 -0.130364 -0.914714 1.62581 0.923785 0 0.382911 0 0.2 0.5 0.5
8 2 0.329733 0.176576 1.72063 0.57735 0.57735 0.57735 0 0.6 0.4 0.4
9 3 0.60637 0.046826 1.2335 0.57735 0 0.57735 0.57735 0.2 0.3 0.7
10 4 0.800398 -0.364393 0.988403 0 0.57735 0.57735 0.57735 0.5 0.3 0.5
4 4 0.167951 -0.980851 2.08949 0.662366 -0.0281863 0.0229426 0.748298 0.2 0.4 0.3
5 1 0.463704 -0.780335 2.4252 0.360149 0.0513615 0.0724224 0.92866 0.3 0.4 0.2
6 4 -0.446295 0.0906216 2.46689 0.707107 0 0 0.707107 0.5 0.5 0.2
7 1 -0.0337705 0.209798 2.07821 0.707107 0 0.707107 0 0.5 0.2 0.5
ITEM: TIMESTEP
1000
ITEM: NUMBER OF ATOMS
10
ITEM: BOX BOUNDS pp pp pp
-2.0000000000000000e+01 2.0000000000000000e+01
-2.0000000000000000e+01 2.0000000000000000e+01
-2.0000000000000000e+01 2.0000000000000000e+01
ITEM: ATOMS id type x y z quatw quati quatj quatk shapex shapey shapez
1 1 -0.337167 -0.435859 0.6419 0.985267 0.0457838 -0.0522899 0.156267 0.3 0.3 0.7
2 2 -0.32298 -0.708037 1.1786 0.923886 0.377767 0.0581507 0.0185738 0.5 0.6 0.5
3 3 -0.125411 -0.93375 1.63955 0.878921 0.00662714 0.439439 -0.185331 0.2 0.5 0.5
8 2 0.327774 0.19935 1.72649 0.616168 0.594062 0.512902 0.0660241 0.6 0.4 0.4
9 3 0.735491 -0.0419641 1.29471 0.907079 -0.308273 -0.0154769 0.286243 0.2 0.3 0.7
10 4 0.734501 -0.346389 0.945631 0.183049 -0.10336 0.902477 0.375959 0.5 0.3 0.5
4 4 0.167702 -0.981623 2.08948 0.599119 0.134956 0.422949 0.666302 0.2 0.4 0.3
5 1 0.463859 -0.780547 2.42541 0.0449689 0.16801 0.0787395 0.981606 0.3 0.4 0.2
6 4 -0.449007 0.0879449 2.46682 0.6489 -0.0746465 -0.104992 0.749889 0.5 0.5 0.2
7 1 -0.036832 0.216841 2.08072 0.752439 0.0152498 0.655491 0.0627225 0.5 0.2 0.5
ITEM: TIMESTEP
2000
ITEM: NUMBER OF ATOMS
10
ITEM: BOX BOUNDS pp pp pp
-2.0000000000000000e+01 2.0000000000000000e+01
-2.0000000000000000e+01 2.0000000000000000e+01
-2.0000000000000000e+01 2.0000000000000000e+01
ITEM: ATOMS id type x y z quatw quati quatj quatk shapex shapey shapez
1 1 -0.336937 -0.433646 0.635931 0.944821 0.0806176 -0.131829 0.28885 0.3 0.3 0.7
2 2 -0.324897 -0.701174 1.17558 0.917554 0.370084 0.138312 0.0447524 0.5 0.6 0.5
3 3 -0.125858 -0.960388 1.65601 0.842891 0.00761079 0.402767 -0.356728 0.2 0.5 0.5
8 2 0.328243 0.239757 1.74086 0.618655 0.612286 0.460118 0.175109 0.6 0.4 0.4
9 3 0.84082 -0.250797 1.30988 0.42057 -0.310105 -0.501976 0.689185 0.2 0.3 0.7
10 4 0.685102 -0.292105 0.918465 -0.187895 -0.753476 0.612566 0.147416 0.5 0.3 0.5
4 4 0.181083 -0.976983 2.08975 0.662581 0.429698 0.532651 0.30435 0.2 0.4 0.3
5 1 0.464017 -0.780757 2.42562 -0.278601 0.24803 0.104983 0.921868 0.3 0.4 0.2
6 4 -0.460487 0.0726854 2.46659 0.638026 -0.161721 -0.193826 0.727461 0.5 0.5 0.2
7 1 -0.0405839 0.249414 2.08264 0.713856 -0.0155173 0.69502 0.084352 0.5 0.2 0.5
ITEM: TIMESTEP
3000
ITEM: NUMBER OF ATOMS
10
ITEM: BOX BOUNDS pp pp pp
-2.0000000000000000e+01 2.0000000000000000e+01
-2.0000000000000000e+01 2.0000000000000000e+01
-2.0000000000000000e+01 2.0000000000000000e+01
ITEM: ATOMS id type x y z quatw quati quatj quatk shapex shapey shapez
1 1 -0.34127 -0.431899 0.63045 0.84871 0.0900444 -0.235474 0.464904 0.3 0.3 0.7
2 2 -0.326818 -0.694328 1.17263 0.904462 0.359854 0.217935 0.0704092 0.5 0.6 0.5
3 3 -0.128147 -0.988598 1.67135 0.792257 0.0169696 0.348753 -0.500411 0.2 0.5 0.5
8 2 0.330986 0.274764 1.7576 0.598749 0.610538 0.427607 0.293078 0.6 0.4 0.4
9 3 0.907896 -0.524626 1.3519 -0.148184 -0.492346 -0.596772 0.616036 0.2 0.3 0.7
10 4 0.660966 -0.200997 0.875732 -0.775502 -0.590917 0.0314877 -0.220048 0.5 0.3 0.5
4 4 0.195798 -0.973452 2.08598 0.639628 0.582338 0.459607 -0.201296 0.2 0.4 0.3
5 1 0.46722 -0.778306 2.43003 -0.560187 0.360696 0.184739 0.722468 0.3 0.4 0.2
6 4 -0.474948 0.0539376 2.46727 0.638383 -0.267185 -0.259159 0.673732 0.5 0.5 0.2
7 1 -0.0459795 0.296671 2.08015 0.627884 0.00451869 0.763174 0.152667 0.5 0.2 0.5
ITEM: TIMESTEP
4000
ITEM: NUMBER OF ATOMS
10
ITEM: BOX BOUNDS pp pp pp
-2.0000000000000000e+01 2.0000000000000000e+01
-2.0000000000000000e+01 2.0000000000000000e+01
-2.0000000000000000e+01 2.0000000000000000e+01
ITEM: ATOMS id type x y z quatw quati quatj quatk shapex shapey shapez
1 1 -0.355419 -0.43033 0.626477 0.600468 0.0258507 -0.370887 0.707963 0.3 0.3 0.7
2 2 -0.330545 -0.68829 1.17085 0.88553 0.347702 0.293024 0.0952695 0.5 0.6 0.5
3 3 -0.132015 -1.0173 1.68543 0.73055 0.0271449 0.283085 -0.620825 0.2 0.5 0.5
8 2 0.333394 0.310362 1.77375 0.570173 0.604764 0.379801 0.406095 0.6 0.4 0.4
9 3 0.977173 -0.798854 1.39662 -0.491567 -0.687115 -0.514839 0.14552 0.2 0.3 0.7
10 4 0.647457 -0.107903 0.827849 -0.649984 0.0832355 -0.352976 -0.667833 0.5 0.3 0.5
4 4 0.205585 -0.975849 2.08223 0.381179 0.609474 0.39489 -0.572106 0.2 0.4 0.3
5 1 0.481204 -0.773714 2.43911 -0.720831 0.358326 0.307853 0.50718 0.3 0.4 0.2
6 4 -0.489659 0.0352633 2.46833 0.629641 -0.373883 -0.311599 0.605532 0.5 0.5 0.2
7 1 -0.0517132 0.345034 2.07738 0.526237 0.0412663 0.821185 0.216856 0.5 0.2 0.5
ITEM: TIMESTEP
5000
ITEM: NUMBER OF ATOMS
10
ITEM: BOX BOUNDS pp pp pp
-2.0000000000000000e+01 2.0000000000000000e+01
-2.0000000000000000e+01 2.0000000000000000e+01
-2.0000000000000000e+01 2.0000000000000000e+01
ITEM: ATOMS id type x y z quatw quati quatj quatk shapex shapey shapez
1 1 -0.369594 -0.428949 0.622047 0.28748 -0.0918823 -0.47259 0.827992 0.3 0.3 0.7
3 3 -0.144965 -1.04625 1.69733 0.734176 0.0274945 0.16466 -0.658116 0.2 0.5 0.5
9 3 1.04914 -1.0737 1.44179 -0.387768 -0.740155 -0.301408 -0.459303 0.2 0.3 0.7
2 2 -0.335033 -0.682414 1.16959 0.860751 0.334105 0.364554 0.120753 0.5 0.6 0.5
8 2 0.335392 0.347255 1.78906 0.532945 0.596661 0.314345 0.51103 0.6 0.4 0.4
10 4 0.633867 -0.0140288 0.778977 0.115474 0.486575 -0.596028 -0.62822 0.5 0.3 0.5
4 4 0.211306 -0.994742 2.08766 -0.0637399 0.860273 0.296035 -0.410159 0.2 0.4 0.3
5 1 0.520183 -0.757159 2.44733 -0.697808 0.0896674 0.404215 0.584495 0.3 0.4 0.2
6 4 -0.504371 0.0165893 2.46939 0.611082 -0.474874 -0.354292 0.52493 0.5 0.5 0.2
7 1 -0.0574469 0.393396 2.07462 0.413614 0.0855255 0.866282 0.266768 0.5 0.2 0.5
ITEM: TIMESTEP
6000
ITEM: NUMBER OF ATOMS
10
ITEM: BOX BOUNDS pp pp pp
-2.0000000000000000e+01 2.0000000000000000e+01
-2.0000000000000000e+01 2.0000000000000000e+01
-2.0000000000000000e+01 2.0000000000000000e+01
ITEM: ATOMS id type x y z quatw quati quatj quatk shapex shapey shapez
1 1 -0.382424 -0.435804 0.596845 0.308076 0.0207931 -0.58757 0.747943 0.3 0.3 0.7
3 3 -0.157333 -1.07303 1.71141 0.712651 0.0411024 0.0597004 -0.697764 0.2 0.5 0.5
9 3 1.12118 -1.34858 1.48698 0.10358 -0.576848 -0.113344 -0.802291 0.2 0.3 0.7
2 2 -0.340929 -0.673482 1.17625 0.832072 0.343727 0.392157 0.188998 0.5 0.6 0.5
8 2 0.337322 0.384271 1.80416 0.486874 0.582057 0.238984 0.605846 0.6 0.4 0.4
10 4 0.620236 0.0798669 0.730098 0.653714 0.525356 -0.537354 0.0889387 0.5 0.3 0.5
4 4 0.21918 -1.01753 2.09138 -0.346411 0.91888 -0.0742993 -0.173606 0.2 0.4 0.3
5 1 0.561356 -0.739296 2.45822 -0.600904 -0.216615 0.468938 0.609991 0.3 0.4 0.2
6 4 -0.519083 -0.00208466 2.47045 0.583478 -0.567814 -0.386639 0.433187 0.5 0.5 0.2
7 1 -0.0631846 0.44181 2.07199 0.29299 0.131892 0.89847 0.299188 0.5 0.2 0.5
ITEM: TIMESTEP
7000
ITEM: NUMBER OF ATOMS
10
ITEM: BOX BOUNDS pp pp pp
-2.0000000000000000e+01 2.0000000000000000e+01
-2.0000000000000000e+01 2.0000000000000000e+01
-2.0000000000000000e+01 2.0000000000000000e+01
ITEM: ATOMS id type x y z quatw quati quatj quatk shapex shapey shapez
1 1 -0.394723 -0.444823 0.566055 0.386494 0.229456 -0.65605 0.606276 0.3 0.3 0.7
3 3 -0.165647 -1.09347 1.72344 0.631495 0.0297643 -0.064266 -0.772139 0.2 0.5 0.5
9 3 1.19322 -1.62346 1.53216 0.696365 -0.31558 -0.0621392 -0.641579 0.2 0.3 0.7
2 2 -0.348475 -0.664401 1.18398 0.799668 0.361437 0.39557 0.270958 0.5 0.6 0.5
8 2 0.339432 0.421743 1.81833 0.433485 0.560017 0.157462 0.688242 0.6 0.4 0.4
10 4 0.606605 0.173763 0.68122 0.567424 0.37816 0.0722435 0.727878 0.5 0.3 0.5
4 4 0.227498 -1.04885 2.1072 -0.558483 0.678384 -0.327611 -0.347222 0.2 0.4 0.3
5 1 0.602551 -0.72135 2.4692 -0.424374 -0.48534 0.517897 0.562258 0.3 0.4 0.2
6 4 -0.533795 -0.0207587 2.47151 0.547736 -0.650508 -0.408321 0.331812 0.5 0.5 0.2
7 1 -0.0692692 0.489348 2.07116 0.181522 0.176767 0.916048 0.3109 0.5 0.2 0.5
ITEM: TIMESTEP
8000
ITEM: NUMBER OF ATOMS
10
ITEM: BOX BOUNDS pp pp pp
-2.0000000000000000e+01 2.0000000000000000e+01
-2.0000000000000000e+01 2.0000000000000000e+01
-2.0000000000000000e+01 2.0000000000000000e+01
ITEM: ATOMS id type x y z quatw quati quatj quatk shapex shapey shapez
1 1 -0.407022 -0.453842 0.535264 0.415592 0.447854 -0.654513 0.445335 0.3 0.3 0.7
10 4 0.592973 0.267658 0.632341 0.213464 -0.0759832 0.754152 0.616372 0.5 0.3 0.5
3 3 -0.173566 -1.11092 1.7363 0.528449 0.0405391 -0.166285 -0.831533 0.2 0.5 0.5
9 3 1.26525 -1.89834 1.57735 0.960387 -0.129451 -0.233766 -0.0790719 0.2 0.3 0.7
2 2 -0.356847 -0.655757 1.19109 0.7625 0.378564 0.388861 0.352236 0.5 0.6 0.5
8 2 0.342899 0.465494 1.82864 0.393567 0.522661 0.0916335 0.750689 0.6 0.4 0.4
4 4 0.239191 -1.08369 2.12545 -0.754479 0.336015 -0.407786 -0.389314 0.2 0.4 0.3
5 1 0.644715 -0.703407 2.47998 -0.190936 -0.698106 0.523953 0.44907 0.3 0.4 0.2
6 4 -0.548507 -0.0394326 2.47257 0.504862 -0.720957 -0.419302 0.222536 0.5 0.5 0.2
7 1 -0.0779607 0.52483 2.07774 0.138946 0.310014 0.890169 0.303618 0.5 0.2 0.5
ITEM: TIMESTEP
9000
ITEM: NUMBER OF ATOMS
10
ITEM: BOX BOUNDS pp pp pp
-2.0000000000000000e+01 2.0000000000000000e+01
-2.0000000000000000e+01 2.0000000000000000e+01
-2.0000000000000000e+01 2.0000000000000000e+01
ITEM: ATOMS id type x y z quatw quati quatj quatk shapex shapey shapez
1 1 -0.419322 -0.462861 0.504474 0.391815 0.653101 -0.583505 0.281889 0.3 0.3 0.7
10 4 0.579342 0.361554 0.583462 -0.18344 -0.677426 0.70783 0.0801322 0.5 0.3 0.5
3 3 -0.188867 -1.12323 1.74822 0.516182 0.059366 -0.253346 -0.815995 0.2 0.5 0.5
9 3 1.33729 -2.17322 1.62253 0.718366 -0.108546 -0.515936 0.453849 0.2 0.3 0.7
2 2 -0.365483 -0.647234 1.19801 0.719862 0.392854 0.376581 0.430872 0.5 0.6 0.5
8 2 0.348179 0.512081 1.83404 0.346522 0.481879 0.0220931 0.804504 0.6 0.4 0.4
4 4 0.267322 -1.1285 2.14694 -0.929461 0.160812 -0.331957 0.0068577 0.2 0.4 0.3
5 1 0.687471 -0.68544 2.49062 0.0833794 -0.821789 0.478517 0.297878 0.3 0.4 0.2
6 4 -0.563218 -0.0581066 2.47363 0.455943 -0.777404 -0.41982 0.107283 0.5 0.5 0.2
7 1 -0.0901302 0.554866 2.09373 0.180617 0.455182 0.828333 0.272122 0.5 0.2 0.5
ITEM: TIMESTEP
10000
ITEM: NUMBER OF ATOMS
10
ITEM: BOX BOUNDS pp pp pp
-2.0000000000000000e+01 2.0000000000000000e+01
-2.0000000000000000e+01 2.0000000000000000e+01
-2.0000000000000000e+01 2.0000000000000000e+01
ITEM: ATOMS id type x y z quatw quati quatj quatk shapex shapey shapez
1 1 -0.431621 -0.471879 0.473683 0.317154 0.823688 -0.450856 0.132965 0.3 0.3 0.7
10 4 0.565711 0.45545 0.534583 -0.613896 -0.723609 0.0253035 -0.314455 0.5 0.3 0.5
3 3 -0.203449 -1.13509 1.76069 0.490583 0.085838 -0.334502 -0.800043 0.2 0.5 0.5
9 3 1.40933 -2.44811 1.66772 0.14427 -0.260427 -0.705562 0.643076 0.2 0.3 0.7
2 2 -0.374387 -0.638839 1.20471 0.672082 0.404515 0.35871 0.505964 0.5 0.6 0.5
8 2 0.353964 0.558814 1.8384 0.290606 0.438924 -0.0522035 0.848627 0.6 0.4 0.4
4 4 0.29562 -1.17344 2.16866 -0.867196 -0.0443106 -0.258384 0.423374 0.2 0.4 0.3
5 1 0.730234 -0.667463 2.50127 0.368108 -0.838 0.375892 0.144768 0.3 0.4 0.2
6 4 -0.57793 -0.0767806 2.47469 0.402113 -0.818385 -0.410378 -0.0118667 0.5 0.5 0.2
7 1 -0.103272 0.584623 2.11174 0.243269 0.582709 0.736688 0.241994 0.5 0.2 0.5
ITEM: TIMESTEP
11000
ITEM: NUMBER OF ATOMS
10
ITEM: BOX BOUNDS pp pp pp
-2.0000000000000000e+01 2.0000000000000000e+01
-2.0000000000000000e+01 2.0000000000000000e+01
-2.0000000000000000e+01 2.0000000000000000e+01
ITEM: ATOMS id type x y z quatw quati quatj quatk shapex shapey shapez
1 1 -0.443921 -0.480898 0.442892 0.198934 0.941734 -0.270858 0.0140602 0.3 0.3 0.7
10 4 0.55208 0.549346 0.485704 -0.681411 -0.030159 -0.499294 -0.534298 0.5 0.3 0.5
3 3 -0.217377 -1.14654 1.77339 0.45404 0.117456 -0.410471 -0.782026 0.2 0.5 0.5
9 3 1.48137 -2.72299 1.7129 -0.397874 -0.520934 -0.672024 0.34454 0.2 0.3 0.7
2 2 -0.383523 -0.630557 1.21119 0.619438 0.41358 0.33557 0.57675 0.5 0.6 0.5
8 2 0.359752 0.605547 1.84275 0.22993 0.393504 -0.127392 0.880941 0.6 0.4 0.4
4 4 0.317766 -1.2279 2.1841 -0.731167 -0.280897 -0.109682 0.611932 0.2 0.4 0.3
5 1 0.779239 -0.64012 2.5191 0.551476 -0.704848 0.445473 -0.0248248 0.3 0.4 0.2
6 4 -0.592642 -0.0954546 2.47575 0.34453 -0.842759 -0.391718 -0.132717 0.5 0.5 0.2
7 1 -0.116417 0.61438 2.12975 0.311677 0.685944 0.619805 0.219497 0.5 0.2 0.5
ITEM: TIMESTEP
12000
ITEM: NUMBER OF ATOMS
10
ITEM: BOX BOUNDS pp pp pp
-2.0000000000000000e+01 2.0000000000000000e+01
-2.0000000000000000e+01 2.0000000000000000e+01
-2.0000000000000000e+01 2.0000000000000000e+01
ITEM: ATOMS id type x y z quatw quati quatj quatk shapex shapey shapez
1 1 -0.45622 -0.489917 0.412102 0.0490489 0.994862 -0.062766 -0.0624791 0.3 0.3 0.7
10 4 0.538449 0.643241 0.436825 -0.0568867 0.613599 -0.564861 -0.54881 0.5 0.3 0.5
9 3 1.55341 -2.99787 1.75809 -0.505646 -0.675253 -0.468287 -0.262797 0.2 0.3 0.7
3 3 -0.231018 -1.15785 1.78639 0.409805 0.155251 -0.479645 -0.760196 0.2 0.5 0.5
2 2 -0.392756 -0.622322 1.21756 0.562122 0.419303 0.308372 0.642737 0.5 0.6 0.5
8 2 0.36581 0.651522 1.84718 0.160809 0.349332 -0.204474 0.900165 0.6 0.4 0.4
4 4 0.334652 -1.2909 2.19335 -0.600179 -0.494585 0.109585 0.619001 0.2 0.4 0.3
6 4 -0.607354 -0.114129 2.47681 0.284348 -0.849741 -0.364798 -0.252999 0.5 0.5 0.2
7 1 -0.130082 0.645593 2.14762 0.384901 0.753452 0.493397 0.201793 0.5 0.2 0.5
5 1 0.833509 -0.604248 2.54316 0.543787 -0.429639 0.688921 -0.212351 0.3 0.4 0.2
ITEM: TIMESTEP
13000
ITEM: NUMBER OF ATOMS
10
ITEM: BOX BOUNDS pp pp pp
-2.0000000000000000e+01 2.0000000000000000e+01
-2.0000000000000000e+01 2.0000000000000000e+01
-2.0000000000000000e+01 2.0000000000000000e+01
ITEM: ATOMS id type x y z quatw quati quatj quatk shapex shapey shapez
1 1 -0.46852 -0.498936 0.381311 -0.117286 0.977497 0.151218 -0.0887549 0.3 0.3 0.7
10 4 0.524818 0.737137 0.387946 0.684654 0.608669 -0.394977 -0.0690205 0.5 0.3 0.5
9 3 1.62545 -3.27275 1.80327 -0.147307 -0.591325 -0.253886 -0.751118 0.2 0.3 0.7
3 3 -0.244686 -1.16913 1.79931 0.363481 0.195001 -0.542967 -0.731466 0.2 0.5 0.5
2 2 -0.401992 -0.614088 1.22393 0.500496 0.421029 0.278062 0.703506 0.5 0.6 0.5
8 2 0.372384 0.693996 1.85168 0.0657719 0.313265 -0.289139 0.902185 0.6 0.4 0.4
4 4 0.349572 -1.35453 2.20321 -0.414581 -0.691582 0.282246 0.519783 0.2 0.4 0.3
6 4 -0.622066 -0.132803 2.47787 0.222692 -0.838929 -0.33076 -0.370412 0.5 0.5 0.2
7 1 -0.144739 0.683526 2.16534 0.455059 0.776679 0.391399 0.191042 0.5 0.2 0.5
5 1 0.889823 -0.567778 2.56683 0.447833 -0.103926 0.837877 -0.294291 0.3 0.4 0.2
ITEM: TIMESTEP
14000
ITEM: NUMBER OF ATOMS
10
ITEM: BOX BOUNDS pp pp pp
-2.0000000000000000e+01 2.0000000000000000e+01
-2.0000000000000000e+01 2.0000000000000000e+01
-2.0000000000000000e+01 2.0000000000000000e+01
ITEM: ATOMS id type x y z quatw quati quatj quatk shapex shapey shapez
1 1 -0.480819 -0.507955 0.350521 -0.283129 0.891448 0.348276 -0.0621441 0.3 0.3 0.7
10 4 0.511187 0.831033 0.339067 0.722813 0.243383 0.00724645 0.646725 0.5 0.3 0.5
9 3 1.69749 -3.54763 1.84846 0.443588 -0.344332 -0.134408 -0.816456 0.2 0.3 0.7
3 3 -0.258628 -1.18016 1.81131 0.32553 0.229852 -0.602559 -0.691463 0.2 0.5 0.5
2 2 -0.411228 -0.605854 1.2303 0.435087 0.418768 0.244877 0.75853 0.5 0.6 0.5
8 2 0.378933 0.735534 1.85613 -0.0382547 0.277198 -0.371117 0.885421 0.6 0.4 0.4
4 4 0.362163 -1.41978 2.21558 -0.192744 -0.844299 0.384951 0.319094 0.2 0.4 0.3
6 4 -0.636777 -0.151477 2.47893 0.160638 -0.810309 -0.290891 -0.482678 0.5 0.5 0.2
7 1 -0.159346 0.723257 2.18317 0.523634 0.778726 0.29469 0.180421 0.5 0.2 0.5
5 1 0.949036 -0.530222 2.58989 0.338712 0.217518 0.878614 -0.256899 0.3 0.4 0.2
ITEM: TIMESTEP
15000
ITEM: NUMBER OF ATOMS
10
ITEM: BOX BOUNDS pp pp pp
-2.0000000000000000e+01 2.0000000000000000e+01
-2.0000000000000000e+01 2.0000000000000000e+01
-2.0000000000000000e+01 2.0000000000000000e+01
ITEM: ATOMS id type x y z quatw quati quatj quatk shapex shapey shapez
1 1 -0.493118 -0.516974 0.31973 -0.431591 0.745723 0.507364 0.0144262 0.3 0.3 0.7
10 4 0.497556 0.924929 0.290189 0.1687 -0.125658 0.598706 0.772853 0.5 0.3 0.5
9 3 1.76953 -3.82251 1.89364 0.893796 -0.105339 -0.210666 -0.381645 0.2 0.3 0.7
3 3 -0.273141 -1.19036 1.82108 0.312298 0.25002 -0.661952 -0.633861 0.2 0.5 0.5
2 2 -0.420464 -0.59762 1.23666 0.366456 0.412594 0.209056 0.807324 0.5 0.6 0.5
8 2 0.385481 0.777072 1.86058 -0.142991 0.24026 -0.445702 0.850399 0.6 0.4 0.4
4 4 0.375943 -1.48677 2.23259 0.108359 -0.876185 0.431858 0.184543 0.2 0.4 0.3
6 4 -0.651489 -0.170151 2.47999 0.0991908 -0.764267 -0.246589 -0.587581 0.5 0.5 0.2
5 1 1.00825 -0.492667 2.61296 0.195666 0.49946 0.834523 -0.125801 0.3 0.4 0.2
7 1 -0.173952 0.762988 2.201 0.591083 0.764108 0.198946 0.164864 0.5 0.2 0.5
ITEM: TIMESTEP
16000
ITEM: NUMBER OF ATOMS
10
ITEM: BOX BOUNDS pp pp pp
-2.0000000000000000e+01 2.0000000000000000e+01
-2.0000000000000000e+01 2.0000000000000000e+01
-2.0000000000000000e+01 2.0000000000000000e+01
ITEM: ATOMS id type x y z quatw quati quatj quatk shapex shapey shapez
1 1 -0.505418 -0.525992 0.28894 -0.5476 0.55558 0.611418 0.132785 0.3 0.3 0.7
10 4 0.483924 1.01882 0.24131 -0.314215 -0.517015 0.782117 0.149188 0.5 0.3 0.5
9 3 1.84156 -4.09739 1.93883 0.855993 -0.0160027 -0.465939 0.22343 0.2 0.3 0.7
3 3 -0.287829 -1.20025 1.83015 0.30438 0.263024 -0.718171 -0.567804 0.2 0.5 0.5
2 2 -0.4297 -0.589386 1.24303 0.295185 0.402621 0.170863 0.849451 0.5 0.6 0.5
8 2 0.39203 0.81861 1.86503 -0.246647 0.203082 -0.510937 0.798039 0.6 0.4 0.4
4 4 0.39009 -1.5544 2.25107 0.414933 -0.808848 0.412595 0.0579714 0.2 0.4 0.3
6 4 -0.666201 -0.188825 2.48105 0.0392683 -0.701582 -0.199318 -0.683018 0.5 0.5 0.2
5 1 1.06746 -0.455111 2.63602 0.0654368 0.707036 0.700016 0.0761303 0.3 0.4 0.2
7 1 -0.188559 0.80272 2.21882 0.655607 0.733823 0.106167 0.142871 0.5 0.2 0.5
ITEM: TIMESTEP
17000
ITEM: NUMBER OF ATOMS
10
ITEM: BOX BOUNDS pp pp pp
-2.0000000000000000e+01 2.0000000000000000e+01
-2.0000000000000000e+01 2.0000000000000000e+01
-2.0000000000000000e+01 2.0000000000000000e+01
ITEM: ATOMS id type x y z quatw quati quatj quatk shapex shapey shapez
1 1 -0.517717 -0.535011 0.258149 -0.619488 0.340931 0.649146 0.280377 0.3 0.3 0.7
10 4 0.470293 1.11272 0.192431 -0.53415 -0.685996 0.181034 -0.459695 0.5 0.3 0.5
9 3 1.9136 -4.37228 1.98401 0.382632 -0.096457 -0.713213 0.579323 0.2 0.3 0.7
3 3 -0.302517 -1.21014 1.83921 0.292274 0.272442 -0.769639 -0.498003 0.2 0.5 0.5
2 2 -0.438936 -0.581152 1.2494 0.221879 0.388994 0.130588 0.884534 0.5 0.6 0.5
8 2 0.398578 0.860148 1.86948 -0.347428 0.166232 -0.565063 0.729633 0.6 0.4 0.4
4 4 0.404237 -1.62203 2.26955 0.666956 -0.654672 0.343487 -0.0926846 0.2 0.4 0.3
6 4 -0.680913 -0.207499 2.48211 -0.0183117 -0.623411 -0.150567 -0.767042 0.5 0.5 0.2
5 1 1.12667 -0.417556 2.65909 -0.0153696 0.821422 0.483247 0.302495 0.3 0.4 0.2
7 1 -0.203165 0.842451 2.23665 0.715258 0.689388 0.0180693 0.113237 0.5 0.2 0.5
ITEM: TIMESTEP
18000
ITEM: NUMBER OF ATOMS
10
ITEM: BOX BOUNDS pp pp pp
-2.0000000000000000e+01 2.0000000000000000e+01
-2.0000000000000000e+01 2.0000000000000000e+01
-2.0000000000000000e+01 2.0000000000000000e+01
ITEM: ATOMS id type x y z quatw quati quatj quatk shapex shapey shapez
1 1 -0.530017 -0.54403 0.227359 -0.640207 0.124251 0.616206 0.441572 0.3 0.3 0.7
10 4 0.456662 1.20662 0.143552 -0.555248 -0.205814 -0.571413 -0.568179 0.5 0.3 0.5
9 3 1.98564 -4.64716 2.0292 -0.226054 -0.319667 -0.781382 0.485958 0.2 0.3 0.7
3 3 -0.317206 -1.22002 1.84828 0.275774 0.278636 -0.815833 -0.425121 0.2 0.5 0.5
2 2 -0.448173 -0.572919 1.25577 0.147154 0.371894 0.0885426 0.91225 0.5 0.6 0.5
8 2 0.405127 0.901685 1.87393 -0.443569 0.130208 -0.606574 0.646808 0.6 0.4 0.4
4 4 0.418384 -1.68966 2.28804 0.835499 -0.42547 0.244379 -0.247376 0.2 0.4 0.3
6 4 -0.695625 -0.226173 2.48317 -0.0728417 -0.531268 -0.101807 -0.837905 0.5 0.5 0.2
5 1 1.18589 -0.38 2.68216 -0.0320789 0.841408 0.205661 0.498705 0.3 0.4 0.2
7 1 -0.217772 0.882183 2.25448 0.768026 0.632771 -0.0639688 0.0751334 0.5 0.2 0.5
ITEM: TIMESTEP
19000
ITEM: NUMBER OF ATOMS
10
ITEM: BOX BOUNDS pp pp pp
-2.0000000000000000e+01 2.0000000000000000e+01
-2.0000000000000000e+01 2.0000000000000000e+01
-2.0000000000000000e+01 2.0000000000000000e+01
ITEM: ATOMS id type x y z quatw quati quatj quatk shapex shapey shapez
1 1 -0.542316 -0.553049 0.196568 -0.608076 -0.0717748 0.51567 0.599313 0.3 0.3 0.7
10 4 0.443031 1.30051 0.0946731 -0.164881 0.576427 -0.695076 -0.396756 0.5 0.3 0.5
9 3 2.05768 -4.92204 2.07439 -0.5509 -0.548012 -0.628281 -0.0381316 0.2 0.3 0.7
3 3 -0.331895 -1.22991 1.85734 0.254809 0.28204 -0.856247 -0.349809 0.2 0.5 0.5
2 2 -0.457409 -0.564685 1.26213 0.0716343 0.351531 0.0450596 0.932343 0.5 0.6 0.5
8 2 0.411675 0.943223 1.87838 -0.533367 0.0954247 -0.634245 0.551496 0.6 0.4 0.4
4 4 0.432531 -1.75729 2.30652 0.904612 -0.141867 0.133866 -0.378986 0.2 0.4 0.3
6 4 -0.710336 -0.244847 2.48423 -0.123731 -0.426991 -0.0544524 -0.894094 0.5 0.5 0.2
5 1 1.2451 -0.342444 2.70522 0.00619068 0.77892 -0.102154 0.618716 0.3 0.4 0.2
7 1 -0.232378 0.921914 2.2723 0.811922 0.566289 -0.138941 0.02818 0.5 0.2 0.5
ITEM: TIMESTEP
20000
ITEM: NUMBER OF ATOMS
10
ITEM: BOX BOUNDS pp pp pp
-2.0000000000000000e+01 2.0000000000000000e+01
-2.0000000000000000e+01 2.0000000000000000e+01
-2.0000000000000000e+01 2.0000000000000000e+01
ITEM: ATOMS id type x y z quatw quati quatj quatk shapex shapey shapez
1 1 -0.554615 -0.562068 0.165778 -0.526949 -0.226633 0.357694 0.736897 0.3 0.3 0.7
10 4 0.4294 1.39441 0.0457942 0.550032 0.773735 -0.306949 -0.0676799 0.5 0.3 0.5
9 3 2.12972 -5.19692 2.11957 -0.362796 -0.568628 -0.39316 -0.624873 0.2 0.3 0.7
3 3 -0.346583 -1.2398 1.8664 0.22945 0.283142 -0.890402 -0.272703 0.2 0.5 0.5
2 2 -0.466645 -0.556451 1.2685 -0.00405081 0.328144 0.000489319 0.944619 0.5 0.6 0.5
8 2 0.418224 0.984761 1.88283 -0.615217 0.0622168 -0.647169 0.44588 0.6 0.4 0.4
4 4 0.446678 -1.82493 2.325 0.871653 0.166621 0.0242071 -0.460296 0.2 0.4 0.3
6 4 -0.725048 -0.263521 2.48529 -0.170508 -0.312708 -0.00982024 -0.934368 0.5 0.5 0.2
5 1 1.30431 -0.304889 2.72829 0.0732274 0.652128 -0.405782 0.636167 0.3 0.4 0.2
7 1 -0.246985 0.961645 2.29013 0.845071 0.49251 -0.206229 -0.0275173 0.5 0.2 0.5
ITEM: TIMESTEP
21000
ITEM: NUMBER OF ATOMS
10
ITEM: BOX BOUNDS pp pp pp
-2.0000000000000000e+01 2.0000000000000000e+01
-2.0000000000000000e+01 2.0000000000000000e+01
-2.0000000000000000e+01 2.0000000000000000e+01
ITEM: ATOMS id type x y z quatw quati quatj quatk shapex shapey shapez
1 1 -0.566915 -0.571087 0.134987 -0.405817 -0.324128 0.158456 0.839729 0.3 0.3 0.7
10 4 0.415769 1.4883 -0.00308467 0.83329 0.262554 0.110439 0.473811 0.5 0.3 0.5
9 3 2.20176 -5.4718 2.16476 0.165862 -0.367397 -0.222577 -0.887676 0.2 0.3 0.7
3 3 -0.361272 -1.24968 1.87547 0.199906 0.282453 -0.917857 -0.194414 0.2 0.5 0.5
2 2 -0.475881 -0.548217 1.27487 -0.0792753 0.302001 -0.044803 0.948949 0.5 0.6 0.5
8 2 0.424772 1.0263 1.88728 -0.687639 0.0308316 -0.644781 0.332355 0.6 0.4 0.4
4 4 0.460825 -1.89256 2.34349 0.745507 0.463576 -0.0798937 -0.472158 0.2 0.4 0.3
6 4 -0.73976 -0.282195 2.48635 -0.212821 -0.190783 0.0309041 -0.957786 0.5 0.5 0.2
5 1 1.36353 -0.267333 2.75135 0.136101 0.479742 -0.671515 0.548079 0.3 0.4 0.2
7 1 -0.261591 1.00138 2.30796 0.865801 0.414128 -0.265599 -0.0913447 0.5 0.2 0.5
ITEM: TIMESTEP
22000
ITEM: NUMBER OF ATOMS
10
ITEM: BOX BOUNDS pp pp pp
-2.0000000000000000e+01 2.0000000000000000e+01
-2.0000000000000000e+01 2.0000000000000000e+01
-2.0000000000000000e+01 2.0000000000000000e+01
ITEM: ATOMS id type x y z quatw quati quatj quatk shapex shapey shapez
1 1 -0.579214 -0.580105 0.104197 -0.257863 -0.354085 -0.061539 0.896852 0.3 0.3 0.7
10 4 0.402138 1.5822 -0.0519635 0.294411 -0.275773 0.47737 0.780634 0.5 0.3 0.5
3 3 -0.37596 -1.25957 1.88453 0.166531 0.280484 -0.938217 -0.115522 0.2 0.5 0.5
2 2 -0.485117 -0.539983 1.28124 -0.15342 0.273389 -0.0904403 0.945273 0.5 0.6 0.5
8 2 0.431321 1.06784 1.89173 -0.749309 0.0014329 -0.626872 0.213461 0.6 0.4 0.4
9 3 2.2738 -5.74668 2.20994 0.722486 -0.0963119 -0.208484 -0.652129 0.2 0.3 0.7
4 4 0.474972 -1.96019 2.36197 0.543643 0.710284 -0.178591 -0.409943 0.2 0.4 0.3
6 4 -0.754472 -0.300869 2.48741 -0.250433 -0.0637719 0.0666974 -0.963726 0.5 0.5 0.2
5 1 1.42274 -0.229778 2.77442 0.16512 0.277949 -0.86972 0.372918 0.3 0.4 0.2
7 1 -0.276198 1.04111 2.32579 0.872721 0.333845 -0.317175 -0.162188 0.5 0.2 0.5
ITEM: TIMESTEP
23000
ITEM: NUMBER OF ATOMS
10
ITEM: BOX BOUNDS pp pp pp
-2.0000000000000000e+01 2.0000000000000000e+01
-2.0000000000000000e+01 2.0000000000000000e+01
-2.0000000000000000e+01 2.0000000000000000e+01
ITEM: ATOMS id type x y z quatw quati quatj quatk shapex shapey shapez
1 1 -0.591514 -0.589124 0.0734063 -0.0990781 -0.313412 -0.279608 0.902095 0.3 0.3 0.7
10 4 0.388506 1.67609 -0.100842 -0.420703 -0.498383 0.683705 0.32737 0.5 0.3 0.5
3 3 -0.390649 -1.26946 1.8936 0.129806 0.277714 -0.951151 -0.0365747 0.2 0.5 0.5
2 2 -0.494353 -0.531749 1.2876 -0.225879 0.242619 -0.136037 0.9336 0.5 0.6 0.5
8 2 0.437869 1.10937 1.89618 -0.799083 -0.0258964 -0.5936 0.0918372 0.6 0.4 0.4
9 3 2.34583 -6.02157 2.25513 0.912057 0.0642999 -0.401212 -0.0551972 0.2 0.3 0.7
4 4 0.489119 -2.02782 2.38045 0.288957 0.872342 -0.271895 -0.285652 0.2 0.4 0.3
6 4 -0.769184 -0.319543 2.48847 -0.283213 0.0656382 0.0967248 -0.951907 0.5 0.5 0.2
5 1 1.48195 -0.192222 2.79748 0.141502 0.0597442 -0.977381 0.145377 0.3 0.4 0.2
7 1 -0.290804 1.08084 2.34361 0.864798 0.254253 -0.361408 -0.238463 0.5 0.2 0.5
ITEM: TIMESTEP
24000
ITEM: NUMBER OF ATOMS
10
ITEM: BOX BOUNDS pp pp pp
-2.0000000000000000e+01 2.0000000000000000e+01
-2.0000000000000000e+01 2.0000000000000000e+01
-2.0000000000000000e+01 2.0000000000000000e+01
ITEM: ATOMS id type x y z quatw quati quatj quatk shapex shapey shapez
1 1 -0.603813 -0.598143 0.0426157 0.0534109 -0.206426 -0.473272 0.854722 0.3 0.3 0.7
10 4 0.374875 1.76999 -0.149721 -0.627588 -0.530536 0.322901 -0.469468 0.5 0.3 0.5
3 3 -0.405337 -1.27935 1.90266 0.0903341 0.274574 -0.956395 0.0419164 0.2 0.5 0.5
2 2 -0.503589 -0.523516 1.29397 -0.296062 0.210018 -0.181202 0.914005 0.5 0.6 0.5
8 2 0.444418 1.15091 1.90063 -0.836023 -0.0511483 -0.545489 -0.0298461 0.6 0.4 0.4
9 3 2.41787 -6.29645 2.30031 0.588309 0.046724 -0.672801 0.446149 0.2 0.3 0.7
4 4 0.503266 -2.09545 2.39893 0.00713347 0.926504 -0.355004 -0.124544 0.2 0.4 0.3
6 4 -0.783895 -0.338217 2.48953 -0.311134 0.194687 0.120359 -0.922392 0.5 0.5 0.2
5 1 1.54116 -0.154667 2.82055 0.0623022 -0.164069 -0.9803 -0.0906143 0.3 0.4 0.2
7 1 -0.30541 1.12057 2.36144 0.841411 0.17772 -0.399011 -0.318173 0.5 0.2 0.5
ITEM: TIMESTEP
25000
ITEM: NUMBER OF ATOMS
10
ITEM: BOX BOUNDS pp pp pp
-2.0000000000000000e+01 2.0000000000000000e+01
-2.0000000000000000e+01 2.0000000000000000e+01
-2.0000000000000000e+01 2.0000000000000000e+01
ITEM: ATOMS id type x y z quatw quati quatj quatk shapex shapey shapez
1 1 -0.616112 -0.607162 0.0118252 0.183141 -0.0444027 -0.622607 0.759506 0.3 0.3 0.7
10 4 0.361244 1.86389 -0.1986 -0.432174 -0.253403 -0.469288 -0.727173 0.5 0.3 0.5
3 3 -0.420026 -1.28923 1.91173 0.0488142 0.271418 -0.953769 0.119476 0.2 0.5 0.5
2 2 -0.512825 -0.515282 1.30034 -0.363403 0.175926 -0.225543 0.886633 0.5 0.6 0.5
8 2 0.450966 1.19245 1.90508 -0.859414 -0.0743817 -0.483417 -0.148943 0.6 0.4 0.4
9 3 2.48991 -6.57133 2.3455 -0.00960364 -0.118489 -0.827507 0.548726 0.2 0.3 0.7
4 4 0.517413 -2.16308 2.41742 -0.275095 0.865485 -0.416474 0.0425212 0.2 0.4 0.3
6 4 -0.798607 -0.356891 2.49059 -0.33425 0.320604 0.137196 -0.875595 0.5 0.5 0.2
5 1 1.60038 -0.117111 2.84361 -0.0575995 -0.382895 -0.875172 -0.290082 0.3 0.4 0.2
7 1 -0.320017 1.1603 2.37927 0.802393 0.106294 -0.4309 -0.398989 0.5 0.2 0.5
ITEM: TIMESTEP
26000
ITEM: NUMBER OF ATOMS
10
ITEM: BOX BOUNDS pp pp pp
-2.0000000000000000e+01 2.0000000000000000e+01
-2.0000000000000000e+01 2.0000000000000000e+01
-2.0000000000000000e+01 2.0000000000000000e+01
ITEM: ATOMS id type x y z quatw quati quatj quatk shapex shapey shapez
1 1 -0.628412 -0.616181 -0.0189653 0.276036 0.15561 -0.712338 0.626231 0.3 0.3 0.7
10 4 0.347613 1.95778 -0.247479 -0.0989433 0.406139 -0.832004 -0.364733 0.5 0.3 0.5
3 3 -0.434714 -1.29912 1.92079 0.0060229 0.268509 -0.943177 0.195664 0.2 0.5 0.5
2 2 -0.522062 -0.507048 1.3067 -0.427361 0.140695 -0.268668 0.851695 0.5 0.6 0.5
8 2 0.457515 1.23399 1.90953 -0.868775 -0.0957131 -0.408604 -0.26289 0.6 0.4 0.4
9 3 2.56195 -6.84621 2.39068 -0.504918 -0.363836 -0.761226 0.182254 0.2 0.3 0.7
4 4 0.53156 -2.23071 2.4359 -0.530952 0.699123 -0.440419 0.188011 0.2 0.4 0.3
6 4 -0.813319 -0.375565 2.49165 -0.352696 0.44067 0.14706 -0.812274 0.5 0.5 0.2
5 1 1.65959 -0.0795554 2.86668 -0.18709 -0.583978 -0.671464 -0.416056 0.3 0.4 0.2
7 1 -0.334623 1.20003 2.39709 0.748057 0.0416206 -0.458115 -0.478339 0.5 0.2 0.5
ITEM: TIMESTEP
27000
ITEM: NUMBER OF ATOMS
10
ITEM: BOX BOUNDS pp pp pp
-2.0000000000000000e+01 2.0000000000000000e+01
-2.0000000000000000e+01 2.0000000000000000e+01
-2.0000000000000000e+01 2.0000000000000000e+01
ITEM: ATOMS id type x y z quatw quati quatj quatk shapex shapey shapez
1 1 -0.640711 -0.6252 -0.0497558 0.321886 0.372576 -0.733436 0.468665 0.3 0.3 0.7
10 4 0.333982 2.05168 -0.296358 0.397685 0.826361 -0.391885 0.0734847 0.5 0.3 0.5
3 3 -0.449403 -1.30901 1.92986 -0.0372143 0.266008 -0.924618 0.270069 0.2 0.5 0.5
2 2 -0.531298 -0.498814 1.31307 -0.487429 0.104683 -0.310189 0.809467 0.5 0.6 0.5