LAMMPS data file via write_data, version 2 Aug 2023, timestep = 250000, units = lj

499 atoms
1 atom types
498 bonds
1 bond types
249 ellipsoids

-50 50 xlo xhi
-50 50 ylo yhi
-50 50 zlo zhi

Masses

1 1

Atoms # hybrid/kk

351 1 -21.730777010770396 13.332376509773459 -19.47081877259595 1 1 238.7324039657 0 0 0
354 1 -23.202598945789617 14.506544656648822 -18.74882381861943 1 1 238.7324039657 0 0 0
352 1 -22.433079612647767 13.457926848482705 -20.09264671001235 1 1 238.7324039657 0 0 0
353 1 -22.647922864890962 14.159424261344002 -19.489430843325557 1 1 238.7324039657 0 0 0
237 1 -12.16839282160603 4.214569211610434 -16.440615639121827 1 0 238.7324039657 0 0 0
238 1 -12.703520402642718 4.840200646177902 -16.834729953739405 1 0 238.7324039657 0 0 0
239 1 -13.197383202011808 5.300702335555061 -17.495238563778294 1 0 238.7324039657 0 0 0
240 1 -13.191516705536989 6.159216434165474 -17.812430945754844 1 0 238.7324039657 0 0 0
241 1 -12.72642405265343 7.003682208116738 -17.433784391186112 1 0 238.7324039657 0 0 0
242 1 -12.653917927281768 6.507129775102591 -16.589427572545244 1 0 238.7324039657 0 0 0
244 1 -11.650828989507577 7.279696008187535 -16.93583301836325 1 0 238.7324039657 0 0 0
245 1 -10.666972895137523 7.410907883434053 -17.203452737859205 1 0 238.7324039657 0 0 0
246 1 -9.876602929550874 7.377773868009005 -16.654983250124992 1 0 238.7324039657 0 0 0
255 1 -14.756981063754976 10.351200245909606 -17.11916149741215 1 1 238.7324039657 0 0 0
254 1 -13.818432712632841 9.85300881215193 -17.149974942780826 1 1 238.7324039657 0 0 0
253 1 -12.878939977811436 9.56148774993488 -17.020639969466906 1 1 238.7324039657 0 0 0
252 1 -11.980700817641628 9.277247513553563 -16.88438622011016 1 1 238.7324039657 0 0 0
251 1 -11.680119849954938 8.429511488502515 -17.140647373705026 1 1 238.7324039657 0 0 0
357 1 -24.1992799473071 12.781366322968342 -17.006734013328984 1 1 238.7324039657 0 0 0
258 1 -17.19061120374633 11.146948435783596 -17.281901968403535 1 1 238.7324039657 0 0 0
259 1 -17.440951929411295 10.25756062771622 -16.876146727839583 1 1 238.7324039657 0 0 0
256 1 -15.555965683532357 10.630717902618333 -17.278077127374374 1 1 238.7324039657 0 0 0
257 1 -16.44236032090364 10.766262910342148 -17.737923772919757 1 1 238.7324039657 0 0 0
355 1 -23.974187213924022 14.261061345865787 -18.148849690444433 1 1 238.7324039657 0 0 0
356 1 -24.137657396848773 13.343516258590423 -17.80237209300499 1 1 238.7324039657 0 0 0
350 1 -20.957102951528988 13.7445804841362 -18.946034046285906 1 1 238.7324039657 0 0 0
349 1 -21.51179109459712 14.364481396287022 -18.39809603156484 1 1 238.7324039657 0 0 0
348 1 -21.68020658818095 15.040632379074518 -17.709492540460865 1 1 238.7324039657 0 0 0
347 1 -20.808380983894846 14.98150751912914 -17.31693656163958 1 1 238.7324039657 0 0 0
346 1 -20.1455660284426 15.385729168835473 -16.647350179854072 1 1 238.7324039657 0 0 0
345 1 -19.287991705597776 15.71385649586742 -17.07236730535666 1 1 238.7324039657 0 0 0
344 1 -18.430648827836393 15.285347944205324 -16.822354832429625 1 1 238.7324039657 0 0 0
230 1 -16.186773796191083 0.3606676885378219 -15.11757831279646 1 0 238.7324039657 0 0 0
233 1 -15.010476017083898 1.8821400428515775 -15.218514170574954 1 0 238.7324039657 0 0 0
231 1 -15.513349281407805 0.27281038967679455 -14.461845269399893 1 0 238.7324039657 0 0 0
232 1 -15.602700288585362 1.1666957081188296 -14.933156625085852 1 0 238.7324039657 0 0 0
236 1 -12.946193544873621 3.632204105002982 -16.17387770476909 1 0 238.7324039657 0 0 0
235 1 -13.737722605182793 3.4854902930276785 -15.451950235661242 1 0 238.7324039657 0 0 0
234 1 -14.19673939580104 2.6946435844667627 -15.177527926402787 1 0 238.7324039657 0 0 0
243 1 -12.273097314101516 7.3283294716131895 -16.24673051267235 1 0 238.7324039657 0 0 0
247 1 -9.176303834716967 7.890650700817655 -16.134298701609396 1 0 238.7324039657 0 0 0
261 1 -18.706359436395253 10.39737575212577 -15.803000109089187 1 1 238.7324039657 0 0 0
260 1 -18.142496150937856 9.985790879769421 -16.398219732573924 1 1 238.7324039657 0 0 0
250 1 -10.870799350810136 8.575284060504272 -16.746132621071467 1 0 238.7324039657 0 0 0
249 1 -9.86108354894247 8.675907830667335 -16.214891526085832 1 0 238.7324039657 0 0 0
248 1 -9.306885849518721 8.817367495507737 -15.41894290775933 1 0 238.7324039657 0 0 0
360 1 -25.334020001669057 11.50232011744093 -15.01881488576861 1 1 238.7324039657 0 0 0
359 1 -24.519332035897897 11.716754981179417 -15.432884480149655 1 1 238.7324039657 0 0 0
358 1 -24.509081481580843 12.130113257399822 -16.359663418293866 1 1 238.7324039657 0 0 0
262 1 -18.27751179616305 10.954142749353334 -15.171352807496893 1 1 238.7324039657 0 0 0
341 1 -16.10584905875282 14.427477554820323 -16.147689851061177 1 1 238.7324039657 0 0 0
340 1 -15.383646467118153 13.783030694444335 -16.26380549505847 1 1 238.7324039657 0 0 0
339 1 -14.42510539655277 13.828789516664575 -16.330058843970438 1 1 238.7324039657 0 0 0
338 1 -13.681968707116376 13.512196580619968 -15.826009050757467 1 1 238.7324039657 0 0 0
337 1 -12.600669730852335 13.45881728808887 -15.638083620591992 1 1 238.7324039657 0 0 0
336 1 -11.684130332824816 13.474775493964547 -15.386565020217295 1 1 238.7324039657 0 0 0
335 1 -10.905252361377231 13.269346255716217 -14.83320615712066 1 1 238.7324039657 0 0 0
333 1 -9.233528555123103 13.321515515236847 -14.521120091491225 1 1 238.7324039657 0 0 0
334 1 -9.975224019456318 12.872848380465253 -14.944219512019254 1 1 238.7324039657 0 0 0
332 1 -8.253112973081073 13.439380619514116 -14.40131311965199 1 1 238.7324039657 0 0 0
331 1 -7.41464802594011 13.90294228347591 -14.492142533149474 1 1 238.7324039657 0 0 0
343 1 -17.5146564443709 15.253424717402352 -16.697665988025506 1 1 238.7324039657 0 0 0
342 1 -17.046029848010406 14.670863700733932 -16.12827116015916 1 1 238.7324039657 0 0 0
306 1 -17.336809242479255 21.436167901909247 -15.038435196998826 1 1 238.7324039657 0 0 0
229 1 -16.545847124313106 -0.22552309722768246 -14.512680985915367 1 0 238.7324039657 0 0 0
228 1 -16.182962139769483 -0.6992613032245004 -13.75520876275861 1 0 238.7324039657 0 0 0
227 1 -15.724025340160006 -0.6344429462932916 -13.004992176248225 1 0 238.7324039657 0 0 0
363 1 -26.224712255067303 10.107557843851122 -12.833967227455169 1 1 238.7324039657 0 0 0
362 1 -25.767979409777446 10.802916934960068 -13.40756929186656 1 1 238.7324039657 0 0 0
361 1 -25.758037620305775 11.346270983826136 -14.194455792392443 1 1 238.7324039657 0 0 0
263 1 -18.48471018177274 11.353724027543288 -14.334047754920647 1 1 238.7324039657 0 0 0
264 1 -18.3405299297194 11.6571594952935 -13.455516432855882 1 1 238.7324039657 0 0 0
329 1 -8.296583654532862 14.495979562658052 -13.244257203972927 1 1 238.7324039657 0 0 0
328 1 -8.547754025893555 15.35786820286189 -12.887438839124913 1 1 238.7324039657 0 0 0
327 1 -9.42332866438385 15.540050979864116 -12.80306025303518 1 1 238.7324039657 0 0 0
326 1 -10.02765257800495 16.27782853226301 -12.611998267695988 1 1 238.7324039657 0 0 0
330 1 -7.454134867281179 14.552100339997997 -13.738827918010802 1 1 238.7324039657 0 0 0
325 1 -9.819792373487866 16.89353228824772 -13.240680186072982 1 1 238.7324039657 0 0 0
324 1 -9.955191683990916 17.601804611028733 -13.916254701574905 1 1 238.7324039657 0 0 0
309 1 -15.897086668746365 20.570019085421993 -13.363912660050444 1 1 238.7324039657 0 0 0
322 1 -10.452528368270812 19.3107083280662 -13.7367923323858 1 1 238.7324039657 0 0 0
321 1 -10.538011074126837 20.24955228612416 -13.739936103674719 1 1 238.7324039657 0 0 0
323 1 -9.957018491045435 18.56676580577974 -14.003388555573958 1 1 238.7324039657 0 0 0
304 1 -18.503604572035822 21.292731017591148 -13.629862412285972 1 1 238.7324039657 0 0 0
303 1 -18.417063040527864 20.613640038123922 -12.938241234085142 1 1 238.7324039657 0 0 0
305 1 -17.712552662571277 21.29929411498684 -14.173979611168619 1 1 238.7324039657 0 0 0
307 1 -16.456199870829558 21.19568948951596 -14.861927501315133 1 1 238.7324039657 0 0 0
308 1 -15.69115086301227 20.943825074027234 -14.246945323819528 1 1 238.7324039657 0 0 0
320 1 -10.698100030533311 20.831821167959653 -12.951381235577644 1 1 238.7324039657 0 0 0
224 1 -15.396048725936044 -0.5663052846906345 -10.463879636057971 1 0 238.7324039657 0 0 0
226 1 -15.29776801351122 -0.9356750398684488 -12.140470602615546 1 0 238.7324039657 0 0 0
225 1 -15.173997814072369 -1.055489606862046 -11.264457485034432 1 0 238.7324039657 0 0 0
382 1 -22.79350415719799 6.6594674841184975 -10.894178932846833 1 1 238.7324039657 0 0 0
381 1 -22.00506637413898 7.058340208388653 -11.196299589204529 1 1 238.7324039657 0 0 0
367 1 -26.238235739190547 9.082564138154408 -10.537516525190247 1 1 238.7324039657 0 0 0
366 1 -25.421944066126315 9.38817082297017 -11.081106362744517 1 1 238.7324039657 0 0 0
365 1 -25.126477253874004 9.94280249190746 -11.872520018333287 1 1 238.7324039657 0 0 0
364 1 -26.083849986906493 9.700434738730422 -11.998033510821196 1 1 238.7324039657 0 0 0
380 1 -21.236812400992356 7.739296023779568 -11.278633088244934 1 1 238.7324039657 0 0 0
376 1 -22.015265164077363 9.165670533678886 -10.240413455024914 1 1 238.7324039657 0 0 0
265 1 -18.07300045591646 11.680564989958611 -12.600983508800558 1 1 238.7324039657 0 0 0
266 1 -17.4338747890893 11.986758110323583 -11.891852906800965 1 1 238.7324039657 0 0 0
267 1 -17.494442058415718 12.628938735153524 -11.193576403425288 1 1 238.7324039657 0 0 0
301 1 -17.780913712480764 19.838310576928556 -11.405943209789216 1 1 238.7324039657 0 0 0
302 1 -18.289847749155122 20.137679956525435 -12.072338717693368 1 1 238.7324039657 0 0 0
300 1 -17.339782614215455 19.226488651538485 -10.785599790074498 1 1 238.7324039657 0 0 0
310 1 -15.89123296584713 20.818847535746873 -12.421590461138068 1 1 238.7324039657 0 0 0
313 1 -13.53434762299484 20.60012229042743 -11.512036611192128 1 1 238.7324039657 0 0 0
311 1 -14.945068125367827 21.142412182598086 -12.369109554482044 1 1 238.7324039657 0 0 0
312 1 -13.997930757363193 20.80478754961429 -12.31589578627562 1 1 238.7324039657 0 0 0
314 1 -12.733290745111423 20.859164924486475 -11.9491523921463 1 1 238.7324039657 0 0 0
315 1 -11.861444608361799 21.383983123710415 -11.711848757652659 1 1 238.7324039657 0 0 0
316 1 -11.122368177666312 21.99054368617885 -11.423496119159285 1 1 238.7324039657 0 0 0
317 1 -11.479575503440625 22.538046016500626 -12.178278738707844 1 1 238.7324039657 0 0 0
319 1 -10.986506456611972 20.81040993230749 -12.023211266241375 1 1 238.7324039657 0 0 0
318 1 -11.105226818583095 21.69246957367917 -12.454248988684265 1 1 238.7324039657 0 0 0
223 1 -15.966983979521766 -0.05266078684893358 -9.849689602163954 1 0 238.7324039657 0 0 0
222 1 -15.560084405113074 -0.3775345509266266 -9.086552229122761 1 0 238.7324039657 0 0 0
221 1 -15.111923515718388 0.35554374733113364 -8.648185235868878 1 0 238.7324039657 0 0 0
42 1 -0.08895691591523312 5.306207892058166 -7.974092574880554 1 0 238.7324039657 0 0 0
45 1 1.574467688698464 4.214820133094997 -8.158623454435753 1 0 238.7324039657 0 0 0
368 1 -26.031420271126347 8.696542008638694 -9.622233490997688 1 1 238.7324039657 0 0 0
369 1 -25.571044149740676 8.073307497648026 -9.045695374218345 1 1 238.7324039657 0 0 0
383 1 -23.32749290523766 6.864906656179256 -10.108848340689077 1 1 238.7324039657 0 0 0
384 1 -23.770018107768003 7.730383437912447 -9.572966052300053 1 1 238.7324039657 0 0 0
370 1 -26.209748921162902 8.367201512994598 -8.333840442864677 1 1 238.7324039657 0 0 0
371 1 -26.082540339185627 9.304145035211913 -8.686254235937046 1 1 238.7324039657 0 0 0
372 1 -25.216730089925065 9.651922608969898 -8.504074652557758 1 1 238.7324039657 0 0 0
375 1 -22.88207413779068 9.09800470457847 -9.76869011818655 1 1 238.7324039657 0 0 0
385 1 -23.866183733274372 8.42937734260623 -8.91860934401155 1 1 238.7324039657 0 0 0
373 1 -24.339135977946373 9.851134251177575 -8.982406009453225 1 1 238.7324039657 0 0 0
386 1 -24.564372905388037 8.773598434148584 -8.211460167321102 1 1 238.7324039657 0 0 0
374 1 -23.660164607056302 9.65778401458199 -9.680517616364959 1 1 238.7324039657 0 0 0
378 1 -21.173293251641375 9.137220127962085 -9.84062148050388 1 1 238.7324039657 0 0 0
379 1 -21.07062450613577 8.335345942470967 -10.555969800763892 1 1 238.7324039657 0 0 0
377 1 -21.57385500221047 9.970328633665622 -10.023583113652741 1 1 238.7324039657 0 0 0
97 1 1.6858923628891225 9.696736013409916 -8.575295368515588 1 0 238.7324039657 0 0 0
92 1 -0.7453827373307438 11.602710342713936 -8.127648310862106 1 0 238.7324039657 0 0 0
94 1 0.7867912335879362 12.18055956056546 -9.018029389686784 1 0 238.7324039657 0 0 0
93 1 0.11485613385787177 11.568238610881494 -8.562450825503936 1 0 238.7324039657 0 0 0
95 1 1.1420983979436368 11.241772318270167 -8.81342297999206 1 0 238.7324039657 0 0 0
96 1 1.8142720538659562 10.635111391989927 -8.806080217484729 1 0 238.7324039657 0 0 0
268 1 -16.735621531968803 12.59271334783019 -10.594141488127763 1 1 238.7324039657 0 0 0
269 1 -16.088443374939615 13.06072832718753 -10.041389508283034 1 1 238.7324039657 0 0 0
270 1 -15.756492827707929 13.155122070118185 -9.140708622659862 1 1 238.7324039657 0 0 0
284 1 -15.458048067766478 16.443390336053724 -8.227924065570807 1 1 238.7324039657 0 0 0
285 1 -15.394264707516053 16.597402191693625 -9.157057518494396 1 1 238.7324039657 0 0 0
286 1 -14.809520997713687 16.782184281201385 -9.921185362253082 1 1 238.7324039657 0 0 0
287 1 -14.637653629375835 17.338231244693265 -9.162546244511514 1 1 238.7324039657 0 0 0
288 1 -15.216988556195991 18.052067559679948 -8.776187510533335 1 1 238.7324039657 0 0 0
299 1 -16.693575990422577 19.328482354502512 -10.098200926372046 1 1 238.7324039657 0 0 0
298 1 -16.12021974381424 19.59326355846858 -9.315014198472731 1 1 238.7324039657 0 0 0
297 1 -15.147012670336064 19.30020846360027 -9.190217491843889 1 1 238.7324039657 0 0 0
296 1 -14.44177789180934 18.94171985845693 -8.555377147268523 1 1 238.7324039657 0 0 0
219 1 -15.884997857868893 0.5696279901364812 -6.9769088592681685 1 0 238.7324039657 0 0 0
220 1 -15.60766666387683 0.7674418942558835 -7.955859946957575 1 0 238.7324039657 0 0 0
46 1 2.118544604682216 3.620838607437654 -7.663760076006794 1 0 238.7324039657 0 0 0
44 1 0.9180625795863615 3.7944999099246006 -7.503032472261374 1 0 238.7324039657 0 0 0
50 1 3.752091886331034 2.4962588076685543 -6.675926708339651 1 0 238.7324039657 0 0 0
48 1 3.3868736256496046 3.591563499040519 -7.382330690336224 1 0 238.7324039657 0 0 0
49 1 2.900546523618397 2.8060121754350655 -6.853352136242187 1 0 238.7324039657 0 0 0
43 1 0.3670994788109503 4.4383387809793335 -8.010714668084503 1 0 238.7324039657 0 0 0
41 1 0.7182710335836047 5.642208926041919 -7.596022994967505 1 0 238.7324039657 0 0 0
47 1 2.6990399377950465 4.309349636121467 -7.507234024259297 1 0 238.7324039657 0 0 0
37 1 -2.32842924152632 6.230604820846743 -6.558926863926328 1 0 238.7324039657 0 0 0
39 1 -1.0053134100321202 6.791870525429278 -7.304373097206971 1 0 238.7324039657 0 0 0
38 1 -1.8650449967009326 7.038873432489743 -6.899970960422813 1 0 238.7324039657 0 0 0
36 1 -1.4186347641076493 6.218007016561066 -6.209325596975611 1 0 238.7324039657 0 0 0
35 1 -0.4500086586869108 6.005323399353979 -6.524074007443399 1 0 238.7324039657 0 0 0
40 1 -0.03933840032470654 6.309857816586416 -7.4544795594402755 1 0 238.7324039657 0 0 0
387 1 -25.28788747864821 9.036517164863767 -7.621709809165883 1 1 238.7324039657 0 0 0
388 1 -25.590374314089274 9.936156222293834 -7.554158309013977 1 1 238.7324039657 0 0 0
98 1 2.4220502637270847 9.943765511158995 -8.098816908948994 1 0 238.7324039657 0 0 0
99 1 2.7596449302016044 10.298826229840223 -7.2771175075114005 1 0 238.7324039657 0 0 0
389 1 -25.88520669068646 10.688212143069393 -6.981290133977215 1 1 238.7324039657 0 0 0
390 1 -26.074155494625167 11.552555556238444 -6.713845018392768 1 1 238.7324039657 0 0 0
391 1 -26.34546652158163 12.482657246746887 -6.602577803192036 1 1 238.7324039657 0 0 0
271 1 -15.740086031900388 12.410641569012407 -8.602861511767951 1 1 238.7324039657 0 0 0
272 1 -15.515401412940378 12.600120532736513 -7.6549179886835885 1 1 238.7324039657 0 0 0
273 1 -15.292687761147443 12.532938842861368 -6.688660790099994 1 1 238.7324039657 0 0 0
90 1 -2.274355743069365 11.776403381188386 -7.174651248209328 1 0 238.7324039657 0 0 0
91 1 -1.2690769921255542 11.936558357182756 -7.48900325298802 1 0 238.7324039657 0 0 0
100 1 3.3145198121712887 10.689186382017306 -6.493900478592884 1 0 238.7324039657 0 0 0
88 1 -2.23523593319718 13.388306693620105 -7.895862746019425 1 0 238.7324039657 0 0 0
87 1 -2.6593048694686017 13.979478174024253 -7.130850156821629 1 0 238.7324039657 0 0 0
86 1 -1.9695080588085425 14.348265784565312 -6.622549518181968 1 0 238.7324039657 0 0 0
89 1 -1.8985391129843887 12.699471600233807 -7.187924306438764 1 0 238.7324039657 0 0 0
283 1 -15.153903894887366 15.541086345296447 -7.888067130711704 1 1 238.7324039657 0 0 0
282 1 -14.302457227870399 15.28543551881819 -7.720909686007469 1 1 238.7324039657 0 0 0
280 1 -13.882953615375015 14.66387080128538 -5.884279993779195 1 1 238.7324039657 0 0 0
281 1 -14.283668514878277 15.047706785298685 -6.816743883882031 1 1 238.7324039657 0 0 0
293 1 -13.355752383123672 17.37297683616197 -8.169994876604484 1 1 238.7324039657 0 0 0
292 1 -12.953187235417406 17.438470100470663 -7.225936124978031 1 1 238.7324039657 0 0 0
289 1 -14.615067361681279 17.816505768611812 -7.906326861347419 1 1 238.7324039657 0 0 0
290 1 -14.096949829092274 17.946904924121576 -7.167745617383686 1 1 238.7324039657 0 0 0
295 1 -13.710820327149706 18.375654326882966 -8.432066966807522 1 1 238.7324039657 0 0 0
294 1 -12.934028813376518 18.164128490673967 -7.9053235811011655 1 1 238.7324039657 0 0 0
215 1 -14.449086152218717 0.09204465699617323 -4.513714301483789 1 0 238.7324039657 0 0 0
218 1 -15.980604298573345 0.336086563665318 -5.961006443028233 1 0 238.7324039657 0 0 0
216 1 -15.154389528657365 0.4754819196940037 -4.965068938417858 1 0 238.7324039657 0 0 0
217 1 -15.715671686271074 1.1278642458870671 -5.459862449147971 1 0 238.7324039657 0 0 0
52 1 3.135689448433204 3.4490625022236507 -5.899583518916687 1 0 238.7324039657 0 0 0
51 1 3.7044854666487232 2.6717861026684098 -5.644001915892137 1 0 238.7324039657 0 0 0
34 1 -0.26814636031651296 5.845389572989154 -5.591060103823873 1 0 238.7324039657 0 0 0
53 1 2.9162242382534713 4.4540193447948395 -5.605296913661037 1 0 238.7324039657 0 0 0
54 1 2.700183256579366 5.043691917367547 -4.854841905854857 1 0 238.7324039657 0 0 0
33 1 -0.6610653459520652 6.280877312649344 -4.713629491275609 1 0 238.7324039657 0 0 0
32 1 -1.3499412015363097 6.810981036772639 -4.28368925839497 1 0 238.7324039657 0 0 0
103 1 2.0026313657071184 9.596956057345032 -4.700625212355559 1 0 238.7324039657 0 0 0
102 1 2.908223111267534 9.79484749295085 -4.829582953660436 1 0 238.7324039657 0 0 0
101 1 3.101000925434809 10.23772701686967 -5.667077891382032 1 0 238.7324039657 0 0 0
392 1 -26.631085109013753 13.376872704859545 -6.3880019653384155 1 1 238.7324039657 0 0 0
393 1 -26.831691728438276 14.2383593156629 -5.952226224928183 1 1 238.7324039657 0 0 0
275 1 -14.63712948120982 13.083478929376462 -5.141768407614977 1 1 238.7324039657 0 0 0
274 1 -15.438522837391346 12.803373879129333 -5.758802196541695 1 1 238.7324039657 0 0 0
278 1 -13.759669714818347 13.913533694424201 -4.499662999313653 1 1 238.7324039657 0 0 0
277 1 -14.30373097347786 13.518948690144398 -3.7357071944000606 1 1 238.7324039657 0 0 0
279 1 -13.270613980821024 14.179780735885553 -5.354920878189222 1 1 238.7324039657 0 0 0
394 1 -27.00390403679121 15.211824195211358 -5.9832212011241035 1 1 238.7324039657 0 0 0
395 1 -26.77783582177543 16.000551307274293 -5.579151130739497 1 1 238.7324039657 0 0 0
396 1 -26.96449201063521 16.92845591329585 -5.351404140780462 1 1 238.7324039657 0 0 0
85 1 -1.970926238028208 14.631769710117608 -5.634660014831206 1 0 238.7324039657 0 0 0
84 1 -2.0219806958696527 15.327676550231159 -4.958843802900875 1 0 238.7324039657 0 0 0
83 1 -2.600822869489016 15.213015525927728 -4.074368209613852 1 0 238.7324039657 0 0 0
397 1 -26.025323051759386 16.900059991582808 -5.08056222924684 1 1 238.7324039657 0 0 0
291 1 -13.480235945191955 17.855080932750656 -6.372814480250607 1 1 238.7324039657 0 0 0
214 1 -13.839879181634592 0.37282649732498147 -3.8864153148364986 1 0 238.7324039657 0 0 0
213 1 -13.200894324419888 0.9954975192239073 -3.523930295907049 1 0 238.7324039657 0 0 0
212 1 -13.066499958520085 1.3545901939816307 -2.665574830972518 1 0 238.7324039657 0 0 0
29 1 -0.8637760887597795 5.458128783123204 -2.621174281768652 1 0 238.7324039657 0 0 0
30 1 -0.8548873225898409 5.990587734471908 -3.487048357981188 1 0 238.7324039657 0 0 0
57 1 1.1982035619734865 5.078587527399543 -2.3257947466130227 1 0 238.7324039657 0 0 0
56 1 1.6138202437407367 5.264979940356074 -3.210551045954356 1 0 238.7324039657 0 0 0
55 1 2.120804176954058 5.175650493500951 -4.120829125975207 1 0 238.7324039657 0 0 0
31 1 -0.9133217881128936 6.9390057423797655 -3.4049784144576076 1 0 238.7324039657 0 0 0
499 1 -34.37655903307202 8.492038250019725 -2.660330506000803 1 1 238.7324039657 0 0 0
498 1 -33.486506967109655 8.721316119678406 -2.5938029830324463 1 1 238.7324039657 0 0 0
105 1 1.2084665240997303 9.435999377860346 -2.8016061165516977 1 0 238.7324039657 0 0 0
104 1 1.4509716839078481 9.769976048450605 -3.7574896271165534 1 0 238.7324039657 0 0 0
276 1 -14.67854203003661 12.7687492917354 -4.2071327421927265 1 1 238.7324039657 0 0 0
80 1 -2.8838776862193525 13.404577748157887 -2.3246194022665376 1 0 238.7324039657 0 0 0
81 1 -2.2645951925502263 13.970625498509271 -2.75262799594564 1 0 238.7324039657 0 0 0
403 1 -22.99682898903747 17.126182689056073 -2.080753482589617 1 1 238.7324039657 0 0 0
404 1 -22.00568569619221 16.930665745281672 -2.2460778171004816 1 1 238.7324039657 0 0 0
405 1 -21.301891809539438 16.00832712367765 -2.333430328886176 1 1 238.7324039657 0 0 0
406 1 -20.795820793086776 14.950084848097246 -2.3463527910130417 1 1 238.7324039657 0 0 0
82 1 -2.281089572191064 14.884595939317101 -3.1288389459751547 1 0 238.7324039657 0 0 0
398 1 -25.705859295762693 17.036717545040585 -4.134059977968505 1 1 238.7324039657 0 0 0
399 1 -25.333115250845054 17.408415876890743 -3.317263118340687 1 1 238.7324039657 0 0 0
401 1 -24.13240546601185 18.144504863677742 -2.1082885579914743 1 1 238.7324039657 0 0 0
400 1 -24.69587919751991 17.58567500836053 -2.688695485235306 1 1 238.7324039657 0 0 0
402 1 -23.211480374637613 17.999010880587402 -1.7591762396670647 1 1 238.7324039657 0 0 0
1 1 5.2091983517580305 -2.466304564551007 -1.1386332433463524 1 0 238.7324039657 0 0 0
2 1 6.202814293019583 -2.643444898647673 -0.9244476342858492 1 0 238.7324039657 0 0 0
3 1 7.12984083880413 -2.7378597283232264 -1.0424567029919274 1 0 238.7324039657 0 0 0
4 1 6.905484515812132 -2.04358791497474 -0.35913175924520413 1 0 238.7324039657 0 0 0
211 1 -13.241018516479539 1.9847077067123708 -1.8008675497402291 1 0 238.7324039657 0 0 0
210 1 -13.635144704688495 1.8327444964528683 -0.9631693964809467 1 0 238.7324039657 0 0 0
209 1 -13.821878997134712 2.4644965048162715 -0.23738830763061747 1 0 238.7324039657 0 0 0
208 1 -13.298391975037143 3.2822428653994526 -0.25486744083034846 1 0 238.7324039657 0 0 0
207 1 -12.936759691909083 4.183073288660755 -0.3890113295190156 1 0 238.7324039657 0 0 0
59 1 0.2158993133575375 4.133070266368557 -1.151108753873399 1 0 238.7324039657 0 0 0
58 1 0.8339104031649768 4.382315433585899 -1.836822991322437 1 0 238.7324039657 0 0 0
206 1 -13.602533400280999 4.810041692802598 -0.21334874503142845 1 0 238.7324039657 0 0 0
158 1 -10.531145018106535 4.661799141115217 0.004122084582519022 1 0 238.7324039657 0 0 0
157 1 -10.22107833222366 4.635755679196845 -1.01452733406957 1 0 238.7324039657 0 0 0
156 1 -10.039049614511798 5.571191676655268 -0.7132856479659064 1 0 238.7324039657 0 0 0
155 1 -9.075265836894886 5.664367612172978 -0.8220380769934857 1 0 238.7324039657 0 0 0
154 1 -8.521809650353214 6.272325098024545 -0.4547743178585753 1 0 238.7324039657 0 0 0
28 1 -0.28207287517510193 5.859770051924432 -1.9468010474205633 1 0 238.7324039657 0 0 0
60 1 0.27734205965062314 4.559768106734847 -0.21808849872921426 1 0 238.7324039657 0 0 0
26 1 0.48200430883233064 5.490114779047288 -0.5025180413528209 1 0 238.7324039657 0 0 0
153 1 -7.9847938682501844 6.993478519499719 -0.6111555408259851 1 0 238.7324039657 0 0 0
152 1 -7.2605496664088225 7.6202758683456535 -0.8006102489375196 1 0 238.7324039657 0 0 0
27 1 0.21269662583519033 5.958237228991452 -1.2497826578764066 1 0 238.7324039657 0 0 0
109 1 1.0587705282573376 7.913555031198587 -0.12718920073959425 1 0 238.7324039657 0 0 0
110 1 0.3563414915185158 7.272525738052272 0.02078244525391595 1 0 238.7324039657 0 0 0
497 1 -32.900832643107854 9.081466337144567 -1.966885926574843 1 1 238.7324039657 0 0 0
151 1 -6.923619075671272 8.513798883145279 -0.8601751444032254 1 0 238.7324039657 0 0 0
150 1 -6.1573365086219 9.156210064072365 -0.6971325098317539 1 0 238.7324039657 0 0 0
149 1 -6.2580348477059005 10.153352592496644 -0.22816143224699065 1 0 238.7324039657 0 0 0
108 1 1.9462805153069822 8.409866722472664 -0.386985339652398 1 0 238.7324039657 0 0 0
107 1 1.7775897195633727 9.229682203735875 -0.8772214229820512 1 0 238.7324039657 0 0 0
67 1 0.8705755486709371 9.131650572605706 -0.5558933010180914 1 0 238.7324039657 0 0 0
106 1 1.6112277505519073 9.502044666456648 -1.8816588957339127 1 0 238.7324039657 0 0 0
68 1 0.06785435974475383 9.543626720357887 -0.3861944447160348 1 0 238.7324039657 0 0 0
489 1 -34.18273494956012 12.420526294826038 0.46443375838443995 1 1 238.7324039657 0 0 0
490 1 -34.474812433914266 11.920664679836635 -0.22602621159119113 1 1 238.7324039657 0 0 0
496 1 -32.72667131761692 9.87962894476472 -1.4807922732208771 1 1 238.7324039657 0 0 0
495 1 -32.18839857563871 10.692224796087686 -1.6569673776862304 1 1 238.7324039657 0 0 0
494 1 -32.47063765606515 11.549070467295824 -1.3439944395126537 1 1 238.7324039657 0 0 0
411 1 -16.914957892934964 12.725755115564139 -0.9729163179828723 1 1 238.7324039657 0 0 0
410 1 -17.73048026385864 12.391096237191562 -1.487992174403558 1 1 238.7324039657 0 0 0
412 1 -16.66184597081245 11.932175174692919 -0.4931217382967889 1 1 238.7324039657 0 0 0
143 1 -8.707606563270108 10.669160711306885 -1.5339867267692253 1 0 238.7324039657 0 0 0
142 1 -8.987788967605706 11.52838473212954 -0.7515833471706654 1 0 238.7324039657 0 0 0
144 1 -7.729557308904517 10.744921169651684 -1.2672630110106526 1 0 238.7324039657 0 0 0
145 1 -7.138968579237553 11.375805544670312 -0.8545877102939451 1 0 238.7324039657 0 0 0
146 1 -6.590213044534391 11.672678782230802 -0.13044369565816477 1 0 238.7324039657 0 0 0
76 1 -3.336973087917026 10.858941110580075 -1.5878500407900435 1 0 238.7324039657 0 0 0
75 1 -3.7453966385108006 11.031660104208562 -0.7256769183643608 1 0 238.7324039657 0 0 0
74 1 -2.961963374564525 10.386826600452782 -0.702230303598952 1 0 238.7324039657 0 0 0
77 1 -3.029087805418105 11.78699370699822 -1.3538879008017874 1 0 238.7324039657 0 0 0
73 1 -2.6026867789751225 11.227746311615183 -0.2400584303207089 1 0 238.7324039657 0 0 0
491 1 -34.57237341303447 12.102700351958283 -1.097938851329085 1 1 238.7324039657 0 0 0
492 1 -33.875150813402485 12.387095593925398 -1.7159832112764521 1 1 238.7324039657 0 0 0
493 1 -32.93271008216202 12.386253439688591 -1.7065232340382341 1 1 238.7324039657 0 0 0
407 1 -19.772971559769594 14.318267282423086 -2.2615462056227558 1 1 238.7324039657 0 0 0
408 1 -18.921868225318015 13.748244384230638 -1.9790657931408235 1 1 238.7324039657 0 0 0
409 1 -18.10933449645995 13.185644941107501 -1.9920888129103769 1 1 238.7324039657 0 0 0
141 1 -8.966557863959055 12.412391293234288 -0.4684214499156283 1 0 238.7324039657 0 0 0
140 1 -8.197544130372588 13.130268521575719 -0.2171128034057602 1 0 238.7324039657 0 0 0
78 1 -3.5244690555284808 12.562854325238304 -1.0708561300121613 1 0 238.7324039657 0 0 0
79 1 -3.665019376748587 12.936200105346746 -2.0107717954933833 1 0 238.7324039657 0 0 0
6 1 5.9848123489991245 -2.1604119068171133 0.9346672055809998 1 0 238.7324039657 0 0 0
7 1 4.9239602612872835 -1.9682605259968247 1.1479475622195852 1 0 238.7324039657 0 0 0
13 1 2.4353927490292735 -0.26857464478954396 1.1627058347429795 1 0 238.7324039657 0 0 0
12 1 3.138030680248857 -0.9674908876752703 1.3414168975912917 1 0 238.7324039657 0 0 0
8 1 4.344535016455029 -1.8902652380080933 0.34004577086813836 1 0 238.7324039657 0 0 0
9 1 4.096856985448281 -0.824687282319333 -0.08260547566470866 1 0 238.7324039657 0 0 0
10 1 4.600032441349177 -0.1511195304452458 0.4952227692426874 1 0 238.7324039657 0 0 0
11 1 4.033745675065812 -0.5245256073100376 1.2086055599604384 1 0 238.7324039657 0 0 0
5 1 6.834208474908491 -1.8366588686641008 0.49366012236974655 1 0 238.7324039657 0 0 0
14 1 1.8010240889941822 0.15343379563174164 1.8261719639996215 1 0 238.7324039657 0 0 0
461 1 -30.123459347637237 3.5296625576718794 1.942195423246292 1 1 238.7324039657 0 0 0
21 1 1.077379301736098 4.008275019845998 1.6638578794323247 1 0 238.7324039657 0 0 0
464 1 -31.17897671831035 5.547325593847092 1.1023919845837304 1 1 238.7324039657 0 0 0
465 1 -31.89179419138783 6.302698936661057 1.0598253996729345 1 1 238.7324039657 0 0 0
463 1 -31.24893557555858 4.550092532063271 1.246495774599977 1 1 238.7324039657 0 0 0
205 1 -13.010917683325456 5.486194104342857 0.07581339012975472 1 0 238.7324039657 0 0 0
160 1 -11.214728398263913 4.740744137524469 0.670502900230211 1 0 238.7324039657 0 0 0
161 1 -11.427224758292372 5.618671937705243 1.0544978848387343 1 0 238.7324039657 0 0 0
162 1 -12.001782938242487 6.320718089085898 1.6803020503601578 1 0 238.7324039657 0 0 0
159 1 -10.88193092835009 5.540240899542506 0.22392824594955024 1 0 238.7324039657 0 0 0
25 1 0.32518236086349694 5.469457589992164 0.48871799417299266 1 0 238.7324039657 0 0 0
24 1 0.25392288570811405 4.530796978490512 0.828688941959041 1 0 238.7324039657 0 0 0
62 1 1.48852005740558 5.896124816954064 -0.1979381995230736 1 0 238.7324039657 0 0 0