LAMMPS data file via write_data, version 10 Sep 2025, timestep = 10000, units = lj

8 atoms
1 atom types
8 ellipsoids

-2 2 xlo xhi
-2 2 ylo yhi
-5 5 zlo zhi

Atoms # ellipsoid

7 1 1 238.7324039657 0 0 -2.857645769000215 0 0 10
8 1 1 238.7324039657 0 0 -4.0615100523774865 0 0 10
5 1 1 238.7324039657 0 0 -0.5406813413691574 0 0 10
6 1 1 238.7324039657 0 0 -1.8847569944577858 0 0 10
3 1 1 238.7324039657 0 0 1.8847569944576723 0 0 10
4 1 1 238.7324039657 0 0 0.5406813413690078 0 0 10
1 1 1 238.7324039657 0 0 4.061510052377898 0 0 10
2 1 1 238.7324039657 0 0 2.8576457690000727 0 0 10

Velocities

7 0 0 10.050521879243062 0 0 0
8 0 0 9.922400654027287 0 0 0
5 0 0 9.73141506049182 0 0 0
6 0 0 9.847858422073381 0 0 0
3 0 0 10.152141577926534 0 0 0
4 0 0 10.268584939508177 0 0 0
1 0 0 10.077599345972628 0 0 0
2 0 0 9.949478120757137 0 0 0

Ellipsoids

7 0.5 1 0.5 0.7071067811865476 0 0.7071067811865476 0
8 1 0.5 0.5 0.5773502691896257 0.5773502691896257 0.5773502691896257 0
5 0.5 1 0.5 0 0.7071067811865476 0 0.7071067811865476
6 0.5 0.5 1 0.7071067811865476 0 0 0.7071067811865476
3 1 0.5 0.5 0.9237852583388739 0 0.3829109511045357 0
4 0.5 0.5 1 0.9237852583388739 0 0 0.3829109511045357
1 0.5 0.5 1 1 0 0 0
2 0.5 1 0.5 0.9237852583388739 0.3829109511045357 0 0
