# LAMMPS data file written by OVITO Basic 3.9.2

8 atoms
1 atom types
8 ellipsoids

-2.0 2.0 xlo xhi
-2.0 2.0 ylo yhi
-5.0 5.0 zlo zhi

Atoms  # ellipsoid

1 1 1 238.7324039657 0.0 0.0 0.5 0 0 0
2 1 1 238.7324039657 0.0 0.0 -0.5 0 0 0
3 1 1 238.7324039657 0.0 0.0 1.5 0 0 0
4 1 1 238.7324039657 0.0 0.0 -1.5 0 0 0
5 1 1 238.7324039657 0.0 0.0 2.5 0 0 0
6 1 1 238.7324039657 0.0 0.0 -2.5 0 0 0
7 1 1 238.7324039657 0.0 0.0 3.5 0 0 0
8 1 1 238.7324039657 0.0 0.0 -3.5 0 0 0
#9 1 1 238.7324039657 0.0 0.0 4.5 0 0 0
#10 1 1 238.7324039657 0.0 0.0 -4.5 0 0 0

Velocities

1 0.0 0.0 10 0.0 0.0 0.0
2 0.0 0.0 10 0.0 0.0 0.0
3 0.0 0.0 10 0.0 0.0 0.0
4 0.0 0.0 10 0.0 0.0 0.0
5 0.0 0.0 10 0.0 0.0 0.0
6 0.0 0.0 10 0.0 0.0 0.0
7 0.0 0.0 10 0.0 0.0 0.0
8 0.0 0.0 10 0.0 0.0 0.0
#9 0.0 0.0 10 0.0 0.0 0.0
#10 0.0 0.0 10 0.0 0.0 0.0

Ellipsoids

1 0.5 0.5 1.0 1.0 0.0 0.0 0.0
2 0.5 1.0 0.5 0.9237853184 0.382910976 0.0 0.0
3 1.0 0.5 0.5 0.9237853184 0.0 0.382910976 0.0
4 0.5 0.5 1.0 0.9237853184 0.0 0.0 0.382910976
5 0.5 1.0 0.5 0.0 0.707106816 0.0 0.707106816
6 0.5 0.5 1.0 0.707106816 0.0 0.0 0.707106816
7 0.5 1.0 0.5 0.707106816 0.0 0.707106816 0.0
8 1.0 0.5 0.5 0.5774 0.5774 0.5774 0.0
#9 0.5 0.5 1.0 0.5774 0.0 0.5774 0.5774
#10 0.5 1.0 0.5 0.0 0.5774 0.5774 0.5774
