LAMMPS (17 Apr 2024)
KOKKOS mode with Kokkos version 4.3.0 is enabled (../kokkos.cpp:72)
  will use up to 1 GPU(s) per node
package kokkos
###
# Reference paper:
# K. Kremer and G. S. Grest
# Dynamics of entangled linear polymer melts: A molecular-dynamics simulation
# J Chem Phys 92, 5057 (1990)
###

###
# Box and units  (use LJ units and periodic boundaries)
###

units lj

atom_style bond

boundary        p p p

###
# Pair interactions require lists of neighbours to be calculated
###
neighbor 1.0 bin
neigh_modify every 1 delay 0 check yes

### Generate RESTART file, SPECIAL format, not a .txt file ###
### Useful if simulation crashes ###
#restart 10000 polymer.restart
#############################

#processors 2 1 1

### READ "REstart" data file ###
#read_restart polymer.restart.10000
######################

read_data lmp_data
Reading data file ...
  orthogonal box = (-10 -10 -10) to (10 10 10)
  1 by 1 by 1 MPI processor grid
  reading atoms ...
  10 atoms
  reading velocities ...
  10 velocities
  scanning bonds ...
  2 = max bonds/atom
  orthogonal box = (-10 -10 -10) to (10 10 10)
  1 by 1 by 1 MPI processor grid
  reading bonds ...
  9 bonds
Finding 1-2 1-3 1-4 neighbors ...
  special bond factors lj:    0        0        0       
  special bond factors coul:  0        0        0       
     2 = max # of 1-2 neighbors
     2 = max # of 1-3 neighbors
     4 = max # of 1-4 neighbors
     6 = max # of special neighbors
  special bonds CPU = 0.001 seconds
  read_data CPU = 0.008 seconds

### reset timestep ###
reset_timestep 0
######################

###
# Define groups (atom type 1 is group 'all')
###
group all type 1
10 atoms in group all
group polymer type 1
10 atoms in group polymer

###
# Dump configs - "simple dumpings"
###

###
# Dump configs + box coords
###
#dump   1   all   custom   100000   polymer.dump.*  id  x y z  ix iy iz
#dump_modify   1   format line "%d %.5f %.5f %.5f %d %d %d"
dump   id all atom 1000 dump.polymer

###################################################################
# Stiffness term
#
# E = K * (theta-thera0)**2, K>0
#
#angle_style   harmonic
#angle_coeff   1 2.0 120.0
###################################################################

###################################################################
# Pairs
#
pair_style oxdna/excv
pair_coeff * *	2.0 0.7 0.675 2.0 0.515 0.5 2.0 0.33 0.32 #oxdna/excv

###################################################################
# oxDNA bond interactions - FENE backbone
#
bond_style oxdna/fene
bond_coeff * 2.0 0.75 1.07525
special_bonds lj 0 1 1
Finding 1-2 1-3 1-4 neighbors ...
  special bond factors lj:    0        1        1       
  special bond factors coul:  0        0        0       
     2 = max # of 1-2 neighbors
     2 = max # of 1-3 neighbors
     4 = max # of 1-4 neighbors
     6 = max # of special neighbors
  special bonds CPU = 0.001 seconds
###################################################

comm_modify cutoff 6
comm_style tiled
balance 1.2 rcb
Balancing ...
Generated 0 of 0 mixed pair_coeff terms from geometric mixing rule
Neighbor list info ...
  update: every = 1 steps, delay = 0 steps, check = yes
  max neighbors/atom: 2000, page size: 100000
  master list distance cutoff = 1.7118792
  ghost atom cutoff = 6
  binsize = 1.7118792, bins = 12 12 12
  1 neighbor lists, perpetual/occasional/extra = 1 0 0
  (1) pair oxdna/excv/kk, perpetual
      attributes: half, newton off
      pair build: half/bin/newtoff
      stencil: full/bin/3d
      bin: standard

###
# Set up fixes
###

fix 1 all   nve   ###NVE ensemble
#fix 2 all   langevin   1.0 1.0   2.0   424242   ###Langevin integrator Tstart Tstop 1/friction rndseed

compute ekin all ke
compute epot all pe
variable ekin equal c_ekin
variable epot equal c_epot
variable etot equal c_ekin+c_epot

fix 5 all print 1000 "$(step)  ekin = ${ekin} | epot = ${epot} | etot = ${etot}" screen yes

##### Sample thermodynamic info  (temperature, energy, pressure, etc.) #####
#thermo 10000
#thermo_style   custom   step  temp  epair  emol  press pxx pyy pzz  vol
############################################################################

###
# set timestep of integrator
###
timestep 0.001 #0.012

###
# run integration for a number of steps
###
run 250000
Generated 0 of 0 mixed pair_coeff terms from geometric mixing rule
0  ekin = 0 | epot = 0.444199844494727 | etot = 0.444199844494727
Per MPI rank memory allocation (min/avg/max) = 4.359 | 4.359 | 4.359 Mbytes
   Step          Temp          E_pair         E_mol          TotEng         Press     
         0   0              0              0.044419984    0.044419984   -0.00014369881
1000  ekin = 0.264877117877318 | epot = 0.17932243406889 | etot = 0.444199551946208
2000  ekin = 0.322356067899819 | epot = 0.121843285276403 | etot = 0.444199353176222
3000  ekin = 0.353256953757797 | epot = 0.0909424272014026 | etot = 0.444199380959199
4000  ekin = 0.243419972870736 | epot = 0.200779573881783 | etot = 0.444199546752519
5000  ekin = 0.306454167232734 | epot = 0.137745362249439 | etot = 0.444199529482173
6000  ekin = 0.26375399873268 | epot = 0.180445598512389 | etot = 0.444199597245069
7000  ekin = 0.226582679606582 | epot = 0.21761688813084 | etot = 0.444199567737422
8000  ekin = 0.327287750070371 | epot = 0.116911731911566 | etot = 0.444199481981937
9000  ekin = 0.279664903931262 | epot = 0.164534635764314 | etot = 0.444199539695576
10000  ekin = 0.306880894340287 | epot = 0.137318560374087 | etot = 0.444199454714374
11000  ekin = 0.33575765102637 | epot = 0.108441757695261 | etot = 0.444199408721631
12000  ekin = 0.275457030002947 | epot = 0.168742435457095 | etot = 0.444199465460042
13000  ekin = 0.306690902569325 | epot = 0.13750852195169 | etot = 0.444199424521015
14000  ekin = 0.364780806657955 | epot = 0.0794185522148585 | etot = 0.444199358872814
15000  ekin = 0.259740700338677 | epot = 0.184458774401404 | etot = 0.444199474740081
16000  ekin = 0.296058946286515 | epot = 0.148140489224096 | etot = 0.444199435510611
17000  ekin = 0.321005009638735 | epot = 0.123194455186433 | etot = 0.444199464825168
18000  ekin = 0.251977522132462 | epot = 0.192222055354807 | etot = 0.444199577487268
19000  ekin = 0.337807238493425 | epot = 0.106392288072636 | etot = 0.444199526566061
20000  ekin = 0.284017792113162 | epot = 0.160181754302481 | etot = 0.444199546415643
21000  ekin = 0.328429127816477 | epot = 0.115770359870014 | etot = 0.444199487686491
22000  ekin = 0.282601535917168 | epot = 0.161597888193458 | etot = 0.444199424110627
23000  ekin = 0.372087868845649 | epot = 0.0721115155158498 | etot = 0.444199384361499
24000  ekin = 0.282545559031458 | epot = 0.16165396220193 | etot = 0.444199521233387
25000  ekin = 0.278562091876832 | epot = 0.165637499389535 | etot = 0.444199591266366
26000  ekin = 0.284215708123665 | epot = 0.159983846532081 | etot = 0.444199554655746
27000  ekin = 0.303741761736993 | epot = 0.140457758961264 | etot = 0.444199520698257
28000  ekin = 0.278425265935433 | epot = 0.165774251715489 | etot = 0.444199517650922
29000  ekin = 0.346572289626301 | epot = 0.0976271277213527 | etot = 0.444199417347654
30000  ekin = 0.349074336575898 | epot = 0.095125055168045 | etot = 0.444199391743943
31000  ekin = 0.279454586226575 | epot = 0.164744850985728 | etot = 0.444199437212304
32000  ekin = 0.403592299125458 | epot = 0.0406070265679735 | etot = 0.444199325693431
33000  ekin = 0.369984794109287 | epot = 0.0742145945560998 | etot = 0.444199388665387
34000  ekin = 0.261933937617036 | epot = 0.182265613304127 | etot = 0.444199550921163
35000  ekin = 0.314154940374205 | epot = 0.130044568014816 | etot = 0.444199508389021
36000  ekin = 0.296912868062676 | epot = 0.147286689657923 | etot = 0.444199557720599
37000  ekin = 0.215376881120304 | epot = 0.228822781452546 | etot = 0.44419966257285
38000  ekin = 0.221309542518639 | epot = 0.222890140488223 | etot = 0.444199683006863
39000  ekin = 0.285397690158902 | epot = 0.158801851913724 | etot = 0.444199542072626
40000  ekin = 0.263997542731697 | epot = 0.180201993500298 | etot = 0.444199536231995
41000  ekin = 0.309780495594457 | epot = 0.13441903585332 | etot = 0.444199531447777
42000  ekin = 0.320876218085097 | epot = 0.123323294604586 | etot = 0.444199512689683
43000  ekin = 0.326158087553427 | epot = 0.118041432805294 | etot = 0.444199520358721
44000  ekin = 0.244983705007224 | epot = 0.199215927202451 | etot = 0.444199632209675
45000  ekin = 0.254850283607814 | epot = 0.189349326780044 | etot = 0.444199610387858
46000  ekin = 0.318571163763515 | epot = 0.125628355568745 | etot = 0.444199519332259
47000  ekin = 0.275248733033156 | epot = 0.168950818322245 | etot = 0.444199551355401
48000  ekin = 0.352592288286985 | epot = 0.0916071641840429 | etot = 0.444199452471028
49000  ekin = 0.404486840241538 | epot = 0.0397125301235587 | etot = 0.444199370365097
50000  ekin = 0.243445549895825 | epot = 0.200753988065759 | etot = 0.444199537961584
51000  ekin = 0.255069760564046 | epot = 0.18912984324698 | etot = 0.444199603811027
52000  ekin = 0.286759195740876 | epot = 0.157440416568353 | etot = 0.444199612309229
53000  ekin = 0.344561625039168 | epot = 0.0996378618080294 | etot = 0.444199486847197
54000  ekin = 0.243138335304408 | epot = 0.201061206119565 | etot = 0.444199541423973
55000  ekin = 0.231405877150721 | epot = 0.212793728318209 | etot = 0.444199605468931
56000  ekin = 0.314670112040265 | epot = 0.129529435456748 | etot = 0.444199547497013
57000  ekin = 0.337557742816044 | epot = 0.106641748346625 | etot = 0.444199491162669
58000  ekin = 0.353255277575331 | epot = 0.0909442064450799 | etot = 0.444199484020411
59000  ekin = 0.364671499404279 | epot = 0.0795279814699092 | etot = 0.444199480874188
60000  ekin = 0.342553207557199 | epot = 0.101646309086996 | etot = 0.444199516644195
61000  ekin = 0.332617697187545 | epot = 0.111581906843646 | etot = 0.444199604031191
62000  ekin = 0.285689822007069 | epot = 0.158509808327736 | etot = 0.444199630334805
63000  ekin = 0.307891733784657 | epot = 0.136307840774374 | etot = 0.444199574559031
64000  ekin = 0.378983259720998 | epot = 0.0652162184453495 | etot = 0.444199478166348
65000  ekin = 0.329418124002355 | epot = 0.114781385683158 | etot = 0.444199509685513
66000  ekin = 0.354567131349478 | epot = 0.0896323450795141 | etot = 0.444199476428992
67000  ekin = 0.323076736600354 | epot = 0.12112279049699 | etot = 0.444199527097345
68000  ekin = 0.27802714099984 | epot = 0.166172460270014 | etot = 0.444199601269855
69000  ekin = 0.322858050176147 | epot = 0.121341479753528 | etot = 0.444199529929676
70000  ekin = 0.345451990601423 | epot = 0.0987475042071292 | etot = 0.444199494808552
71000  ekin = 0.300255860570402 | epot = 0.143943717055523 | etot = 0.444199577625925
72000  ekin = 0.271706973013487 | epot = 0.172492605182978 | etot = 0.444199578196466
73000  ekin = 0.360525660617686 | epot = 0.0836738405495631 | etot = 0.444199501167249
74000  ekin = 0.306078586945529 | epot = 0.138120900874132 | etot = 0.444199487819661
75000  ekin = 0.331084084848381 | epot = 0.113115405238183 | etot = 0.444199490086564
76000  ekin = 0.308766375948951 | epot = 0.135433124749629 | etot = 0.44419950069858
77000  ekin = 0.333218169854067 | epot = 0.11098130400879 | etot = 0.444199473862857
78000  ekin = 0.324332869050089 | epot = 0.11986666147335 | etot = 0.444199530523439
79000  ekin = 0.257922719698785 | epot = 0.186276936806903 | etot = 0.444199656505688
80000  ekin = 0.253566686226818 | epot = 0.190632937597257 | etot = 0.444199623824075
81000  ekin = 0.280337369112128 | epot = 0.163862188434775 | etot = 0.444199557546903
82000  ekin = 0.316652369152029 | epot = 0.127547138324504 | etot = 0.444199507476533
83000  ekin = 0.362943704516224 | epot = 0.0812557557240577 | etot = 0.444199460240282
84000  ekin = 0.421120478606562 | epot = 0.0230789313302042 | etot = 0.444199409936766
85000  ekin = 0.309026094040778 | epot = 0.135173400908463 | etot = 0.444199494949241
86000  ekin = 0.334801619868906 | epot = 0.109397907040479 | etot = 0.444199526909385
87000  ekin = 0.351838796117799 | epot = 0.0923606830202257 | etot = 0.444199479138024
88000  ekin = 0.358646184478407 | epot = 0.0855532322184901 | etot = 0.444199416696897
89000  ekin = 0.350424468210147 | epot = 0.0937749528654894 | etot = 0.444199421075637
90000  ekin = 0.321046556472837 | epot = 0.12315290860233 | etot = 0.444199465075168
91000  ekin = 0.328760778576488 | epot = 0.115438771839459 | etot = 0.444199550415947
92000  ekin = 0.241471753519955 | epot = 0.202727871636791 | etot = 0.444199625156746
93000  ekin = 0.289360733193835 | epot = 0.154838907489401 | etot = 0.444199640683236
94000  ekin = 0.27735523039332 | epot = 0.166844285810364 | etot = 0.444199516203685
95000  ekin = 0.32704505826154 | epot = 0.11715436424385 | etot = 0.44419942250539
96000  ekin = 0.36912035760963 | epot = 0.0750790581705003 | etot = 0.44419941578013
97000  ekin = 0.330871790289477 | epot = 0.113327641567046 | etot = 0.444199431856522
98000  ekin = 0.326173246366049 | epot = 0.118026262392658 | etot = 0.444199508758707
99000  ekin = 0.249928287567822 | epot = 0.194271304738911 | etot = 0.444199592306734
100000  ekin = 0.286717639185213 | epot = 0.157481962288495 | etot = 0.444199601473708
101000  ekin = 0.254382213805123 | epot = 0.189817396834303 | etot = 0.444199610639426
102000  ekin = 0.287810438621148 | epot = 0.156389195604731 | etot = 0.444199634225879
103000  ekin = 0.25153507749594 | epot = 0.192664614776555 | etot = 0.444199692272495
104000  ekin = 0.262114607078614 | epot = 0.182085023003045 | etot = 0.444199630081658
105000  ekin = 0.340196113517565 | epot = 0.104003413052171 | etot = 0.444199526569736
106000  ekin = 0.313927418053281 | epot = 0.130272115086075 | etot = 0.444199533139356
107000  ekin = 0.327571344289644 | epot = 0.116628170646186 | etot = 0.44419951493583
108000  ekin = 0.334004008039389 | epot = 0.11019551794623 | etot = 0.444199525985618
109000  ekin = 0.29834444440632 | epot = 0.14585514795765 | etot = 0.444199592363971
110000  ekin = 0.329381470741068 | epot = 0.114818067651718 | etot = 0.444199538392786
111000  ekin = 0.311897445967199 | epot = 0.132302125445696 | etot = 0.444199571412895
112000  ekin = 0.306110576381991 | epot = 0.138088989421602 | etot = 0.444199565803592
113000  ekin = 0.375423861647401 | epot = 0.0687755875534737 | etot = 0.444199449200875
114000  ekin = 0.402188492292884 | epot = 0.0420109079509152 | etot = 0.444199400243799
115000  ekin = 0.367974726719691 | epot = 0.0762247087474666 | etot = 0.444199435467158
116000  ekin = 0.28311394264606 | epot = 0.161085618030705 | etot = 0.444199560676766
117000  ekin = 0.27216585774747 | epot = 0.172033764421071 | etot = 0.444199622168541
118000  ekin = 0.282660367105111 | epot = 0.16153921997952 | etot = 0.444199587084631
119000  ekin = 0.340726077615445 | epot = 0.103473404700569 | etot = 0.444199482316014
120000  ekin = 0.351091942826927 | epot = 0.0931075127475847 | etot = 0.444199455574511
121000  ekin = 0.36588779824249 | epot = 0.0783117155852949 | etot = 0.444199513827785
122000  ekin = 0.290175875356711 | epot = 0.154023742017075 | etot = 0.444199617373786
123000  ekin = 0.303316604934014 | epot = 0.140882963240771 | etot = 0.444199568174785
124000  ekin = 0.395751158836149 | epot = 0.0484482822381214 | etot = 0.444199441074271
125000  ekin = 0.362262398065286 | epot = 0.081937038557175 | etot = 0.444199436622461
126000  ekin = 0.372399889667677 | epot = 0.0717995586080963 | etot = 0.444199448275773
127000  ekin = 0.370025137187627 | epot = 0.074174293565749 | etot = 0.444199430753376
128000  ekin = 0.312318175713371 | epot = 0.131881290330534 | etot = 0.444199466043905
129000  ekin = 0.329523642702568 | epot = 0.114675861043872 | etot = 0.44419950374644
130000  ekin = 0.314860993448527 | epot = 0.129338596030815 | etot = 0.444199589479343
131000  ekin = 0.305786532153072 | epot = 0.138413063836432 | etot = 0.444199595989503
132000  ekin = 0.35605841305507 | epot = 0.088141139068972 | etot = 0.444199552124042
133000  ekin = 0.354669314420538 | epot = 0.0895301997003623 | etot = 0.4441995141209
134000  ekin = 0.348009899377801 | epot = 0.0961896292575999 | etot = 0.444199528635401
135000  ekin = 0.348251175594537 | epot = 0.09594838415735 | etot = 0.444199559751887
136000  ekin = 0.30062992589206 | epot = 0.143569659983234 | etot = 0.444199585875294
137000  ekin = 0.314715841383288 | epot = 0.129483763030714 | etot = 0.444199604414002
138000  ekin = 0.337696912648829 | epot = 0.10650258542865 | etot = 0.444199498077479
139000  ekin = 0.391070258881202 | epot = 0.0531291500226045 | etot = 0.444199408903807
140000  ekin = 0.385025200976421 | epot = 0.0591741839600958 | etot = 0.444199384936517
141000  ekin = 0.397903192347888 | epot = 0.0462962144196202 | etot = 0.444199406767508
142000  ekin = 0.348211544000151 | epot = 0.0959879619291997 | etot = 0.444199505929351
143000  ekin = 0.32851835055439 | epot = 0.115681187672539 | etot = 0.444199538226929
144000  ekin = 0.366199544226529 | epot = 0.0780000214743077 | etot = 0.444199565700836
145000  ekin = 0.305319572180065 | epot = 0.138880053262842 | etot = 0.444199625442907
146000  ekin = 0.31203426342486 | epot = 0.132165363194399 | etot = 0.444199626619258
147000  ekin = 0.307274349904602 | epot = 0.136925214091122 | etot = 0.444199563995724
148000  ekin = 0.363765506707286 | epot = 0.080433973326025 | etot = 0.444199480033311
149000  ekin = 0.392003103797787 | epot = 0.0521963118917883 | etot = 0.444199415689575
150000  ekin = 0.37042481016995 | epot = 0.0737746209746718 | etot = 0.444199431144621
151000  ekin = 0.400096941176952 | epot = 0.0441024663092964 | etot = 0.444199407486248
152000  ekin = 0.345441714862423 | epot = 0.0987577544506672 | etot = 0.444199469313091
153000  ekin = 0.346612316336711 | epot = 0.0975872137752023 | etot = 0.444199530111913
154000  ekin = 0.343553855506086 | epot = 0.100645685763645 | etot = 0.444199541269731
155000  ekin = 0.343878109038179 | epot = 0.100321425686604 | etot = 0.444199534724784
156000  ekin = 0.320640159156012 | epot = 0.12355940148628 | etot = 0.444199560642292
157000  ekin = 0.332178943745302 | epot = 0.112020646475941 | etot = 0.444199590221242
158000  ekin = 0.286060756844998 | epot = 0.158138858846061 | etot = 0.444199615691059
159000  ekin = 0.281874392398514 | epot = 0.162325237617391 | etot = 0.444199630015905
160000  ekin = 0.276997163442033 | epot = 0.167202422521963 | etot = 0.444199585963996
161000  ekin = 0.36031359637366 | epot = 0.0838859374576034 | etot = 0.444199533831263
162000  ekin = 0.366718807944833 | epot = 0.0774807265418601 | etot = 0.444199534486694
163000  ekin = 0.309414593015916 | epot = 0.134784972190144 | etot = 0.444199565206061
164000  ekin = 0.35804033981636 | epot = 0.0861591794490254 | etot = 0.444199519265385
165000  ekin = 0.376586411467904 | epot = 0.0676130445443702 | etot = 0.444199456012274
166000  ekin = 0.381847149759848 | epot = 0.0623523441419321 | etot = 0.44419949390178
167000  ekin = 0.286517933362674 | epot = 0.157681679289348 | etot = 0.444199612652023
168000  ekin = 0.332343502983384 | epot = 0.111856130214148 | etot = 0.444199633197532
169000  ekin = 0.316496764777082 | epot = 0.127702811702941 | etot = 0.444199576480023
170000  ekin = 0.345594126563079 | epot = 0.0986054361957144 | etot = 0.444199562758793
171000  ekin = 0.301705547109258 | epot = 0.142494033894127 | etot = 0.444199581003385
172000  ekin = 0.377746328542003 | epot = 0.0664532118962606 | etot = 0.444199540438264
173000  ekin = 0.355928283265243 | epot = 0.0882712654249822 | etot = 0.444199548690225
174000  ekin = 0.369819000679515 | epot = 0.0743805708762592 | etot = 0.444199571555774
175000  ekin = 0.307626974391033 | epot = 0.136572611320522 | etot = 0.444199585711556
176000  ekin = 0.373025312934279 | epot = 0.0711742900466698 | etot = 0.444199602980949
177000  ekin = 0.308742213932252 | epot = 0.135457385161192 | etot = 0.444199599093444
178000  ekin = 0.347833834359088 | epot = 0.096365732973151 | etot = 0.444199567332239
179000  ekin = 0.358486667910683 | epot = 0.0857128262520229 | etot = 0.444199494162705
180000  ekin = 0.375597152736918 | epot = 0.0686023080968626 | etot = 0.444199460833781
181000  ekin = 0.369463099882157 | epot = 0.0747363441805433 | etot = 0.4441994440627
182000  ekin = 0.40157107295643 | epot = 0.0426283066625107 | etot = 0.444199379618941
183000  ekin = 0.388048445256185 | epot = 0.0561509214384359 | etot = 0.44419936669462
184000  ekin = 0.362970551596161 | epot = 0.081228887481003 | etot = 0.444199439077164
185000  ekin = 0.29537873055392 | epot = 0.148820898943852 | etot = 0.444199629497772
186000  ekin = 0.253047446999839 | epot = 0.191152296427217 | etot = 0.444199743427056
187000  ekin = 0.272637984502689 | epot = 0.171561728186193 | etot = 0.444199712688882
188000  ekin = 0.311958219511734 | epot = 0.132241382181484 | etot = 0.444199601693218
189000  ekin = 0.310750983490506 | epot = 0.133448586151975 | etot = 0.444199569642481
190000  ekin = 0.332475197727581 | epot = 0.111724316627381 | etot = 0.444199514354962
191000  ekin = 0.371851491091142 | epot = 0.0723479588279108 | etot = 0.444199449919053
192000  ekin = 0.368462354686155 | epot = 0.075737060678637 | etot = 0.444199415364792
193000  ekin = 0.357405917422211 | epot = 0.086793554320921 | etot = 0.444199471743132
194000  ekin = 0.317153513477405 | epot = 0.127046026154639 | etot = 0.444199539632044
195000  ekin = 0.283472300952569 | epot = 0.160727327474337 | etot = 0.444199628426905
196000  ekin = 0.287894242393747 | epot = 0.1563053289781 | etot = 0.444199571371847
197000  ekin = 0.371213930334833 | epot = 0.0729855822473342 | etot = 0.444199512582167
198000  ekin = 0.366295813349004 | epot = 0.0779036017200714 | etot = 0.444199415069075
199000  ekin = 0.373921931535447 | epot = 0.07027751469032 | etot = 0.444199446225767
200000  ekin = 0.344396004411007 | epot = 0.0998035031419434 | etot = 0.444199507552951
201000  ekin = 0.35015952830524 | epot = 0.0940399233068095 | etot = 0.44419945161205
202000  ekin = 0.359657886545493 | epot = 0.0845415460617294 | etot = 0.444199432607223
203000  ekin = 0.370415935266508 | epot = 0.0737835119781341 | etot = 0.444199447244642
204000  ekin = 0.382420594974507 | epot = 0.061778809664136 | etot = 0.444199404638643
205000  ekin = 0.379312960612241 | epot = 0.0648864494841055 | etot = 0.444199410096347
206000  ekin = 0.342208774904522 | epot = 0.101990721629089 | etot = 0.444199496533611
207000  ekin = 0.358172907605151 | epot = 0.086026547501297 | etot = 0.444199455106448
208000  ekin = 0.40565520234708 | epot = 0.0385442015832386 | etot = 0.444199403930318
209000  ekin = 0.368889060285086 | epot = 0.0753104055947654 | etot = 0.444199465879851
210000  ekin = 0.310612327776388 | epot = 0.133587188694551 | etot = 0.444199516470939
211000  ekin = 0.362144317585905 | epot = 0.0820551988894211 | etot = 0.444199516475327
212000  ekin = 0.269637668907335 | epot = 0.174561908943959 | etot = 0.444199577851294
213000  ekin = 0.304347770214887 | epot = 0.139851858868296 | etot = 0.444199629083182
214000  ekin = 0.260934652431206 | epot = 0.183264986668788 | etot = 0.444199639099994
215000  ekin = 0.319095789442785 | epot = 0.125103841077422 | etot = 0.444199630520207
216000  ekin = 0.296328486704719 | epot = 0.147871174084456 | etot = 0.444199660789175
217000  ekin = 0.229556889527868 | epot = 0.214642796465963 | etot = 0.444199685993832
218000  ekin = 0.306142271027578 | epot = 0.138057322580731 | etot = 0.444199593608308
219000  ekin = 0.335395479743776 | epot = 0.108804071065455 | etot = 0.444199550809231
220000  ekin = 0.277245923141898 | epot = 0.166953690666688 | etot = 0.444199613808585
221000  ekin = 0.272758308864216 | epot = 0.171441356751771 | etot = 0.444199665615987
222000  ekin = 0.324668551436091 | epot = 0.119531059287977 | etot = 0.444199610724068
223000  ekin = 0.297436417633625 | epot = 0.146763231707813 | etot = 0.444199649341438
224000  ekin = 0.312047787300106 | epot = 0.132151850266378 | etot = 0.444199637566484
225000  ekin = 0.379420878761945 | epot = 0.0647786383289199 | etot = 0.444199517090865
226000  ekin = 0.359027939082756 | epot = 0.0851715517434773 | etot = 0.444199490826234
227000  ekin = 0.325923399094867 | epot = 0.118276197672999 | etot = 0.444199596767866
228000  ekin = 0.222065721217666 | epot = 0.222133959604734 | etot = 0.4441996808224
229000  ekin = 0.321979036012584 | epot = 0.122220584352466 | etot = 0.44419962036505
230000  ekin = 0.328175950792082 | epot = 0.116023521377414 | etot = 0.444199472169496
231000  ekin = 0.393524503101178 | epot = 0.0506748657236178 | etot = 0.444199368824796
232000  ekin = 0.377777813311444 | epot = 0.0664215354104193 | etot = 0.444199348721864
233000  ekin = 0.372296109558213 | epot = 0.0719032622713107 | etot = 0.444199371829524
234000  ekin = 0.338190293237646 | epot = 0.106009116742877 | etot = 0.444199409980523
235000  ekin = 0.373467385093693 | epot = 0.0707320548958359 | etot = 0.444199439989529
236000  ekin = 0.318036740900506 | epot = 0.126162766852179 | etot = 0.444199507752685
237000  ekin = 0.263916744607354 | epot = 0.180282859305724 | etot = 0.444199603913078
238000  ekin = 0.28872628951028 | epot = 0.155473344578485 | etot = 0.444199634088765
239000  ekin = 0.33925586859356 | epot = 0.104943653300045 | etot = 0.444199521893605
240000  ekin = 0.329272683398046 | epot = 0.114926818524909 | etot = 0.444199501922955
241000  ekin = 0.297837013132229 | epot = 0.146362537608329 | etot = 0.444199550740559
242000  ekin = 0.348520101522351 | epot = 0.0956793782393876 | etot = 0.444199479761739
243000  ekin = 0.386867890823266 | epot = 0.0573315506067472 | etot = 0.444199441430014
244000  ekin = 0.333440877032553 | epot = 0.110758564804067 | etot = 0.44419944183662
245000  ekin = 0.384081273999578 | epot = 0.0601181408605004 | etot = 0.444199414860078
246000  ekin = 0.3634396272273 | epot = 0.080759786513666 | etot = 0.444199413740966
247000  ekin = 0.394042090437275 | epot = 0.0501572748953671 | etot = 0.444199365332642
248000  ekin = 0.382029647208989 | epot = 0.0621697308904778 | etot = 0.444199378099467
249000  ekin = 0.373165588623529 | epot = 0.0710338035036265 | etot = 0.444199392127155
250000  ekin = 0.354432871079207 | epot = 0.0897665692268009 | etot = 0.444199440306008
    250000   0.026254287    0              0.0089766569   0.044419944    4.0137545e-05
Loop time of 31.3127 on 1 procs for 250000 steps with 10 atoms

Performance: 689816.495 tau/day, 7983.987 timesteps/s, 79.840 katom-step/s
100.0% CPU use with 1 MPI tasks x 1 OpenMP threads

MPI task timing breakdown:
Section |  min time  |  avg time  |  max time  |%varavg| %total
---------------------------------------------------------------
Pair    | 0.041889   | 0.041889   | 0.041889   |   0.0 |  0.13
Bond    | 7.1031     | 7.1031     | 7.1031     |   0.0 | 22.68
Neigh   | 0.003509   | 0.003509   | 0.003509   |   0.0 |  0.01
Comm    | 5.3401     | 5.3401     | 5.3401     |   0.0 | 17.05
Output  | 0.0035075  | 0.0035075  | 0.0035075  |   0.0 |  0.01
Modify  | 6.6628     | 6.6628     | 6.6628     |   0.0 | 21.28
Other   |            | 12.16      |            |       | 38.83

Nlocal:             10 ave          10 max          10 min
Histogram: 1 0 0 0 0 0 0 0 0 0
Nghost:             12 ave          12 max          12 min
Histogram: 1 0 0 0 0 0 0 0 0 0
Neighs:             20 ave          20 max          20 min
Histogram: 1 0 0 0 0 0 0 0 0 0

Total # of neighbors = 20
Ave neighs/atom = 2
Ave special neighs/atom = 4.8
Neighbor list builds = 166
Dangerous builds = 0

write_data data_out.* nocoeff
System init for write_data ...
Generated 0 of 0 mixed pair_coeff terms from geometric mixing rule

Total wall time: 0:00:31
