LAMMPS (17 Apr 2024)
KOKKOS mode with Kokkos version 4.3.0 is enabled (../kokkos.cpp:72)
Reading data file ...
  orthogonal box = (-10 -10 -10) to (10 10 10)
  1 by 1 by 1 MPI processor grid
  reading atoms ...
  10 atoms
  reading velocities ...
  10 velocities
  scanning bonds ...
  1 = max bonds/atom
  orthogonal box = (-10 -10 -10) to (10 10 10)
  1 by 1 by 1 MPI processor grid
  reading bonds ...
  9 bonds
Finding 1-2 1-3 1-4 neighbors ...
  special bond factors lj:    0        0        0       
  special bond factors coul:  0        0        0       
     2 = max # of 1-2 neighbors
     2 = max # of 1-3 neighbors
     4 = max # of 1-4 neighbors
     6 = max # of special neighbors
  special bonds CPU = 0.000 seconds
  read_data CPU = 0.002 seconds
10 atoms in group all
10 atoms in group polymer
Finding 1-2 1-3 1-4 neighbors ...
  special bond factors lj:    0        1        1       
  special bond factors coul:  0        0        0       
     2 = max # of 1-2 neighbors
     2 = max # of 1-3 neighbors
     4 = max # of 1-4 neighbors
     6 = max # of special neighbors
  special bonds CPU = 0.000 seconds
Balancing ...
Generated 0 of 0 mixed pair_coeff terms from geometric mixing rule
Neighbor list info ...
  update: every = 1 steps, delay = 0 steps, check = yes
  max neighbors/atom: 2000, page size: 100000
  master list distance cutoff = 1.7118792
  ghost atom cutoff = 6
  binsize = 0.85593961, bins = 24 24 24
  1 neighbor lists, perpetual/occasional/extra = 1 0 0
  (1) pair oxdna/excv/kk, perpetual
      attributes: half, newton on, kokkos_device
      pair build: half/bin/newton/kk/device
      stencil: half/bin/3d
      bin: kk/device
Generated 0 of 0 mixed pair_coeff terms from geometric mixing rule
Setting up Verlet run ...
  Unit style    : lj
  Current step  : 0
  Time step     : 0.001
0  ekin = 0 | epot = 0.444199844494727 | etot = 0.444199844494727
Per MPI rank memory allocation (min/avg/max) = 4.326 | 4.326 | 4.326 Mbytes
   Step          Temp          E_pair         E_mol          TotEng         Press     
         0   0              0              0.044419984    0.044419984   -0.00014369881
1  ekin = 2.86801544740834e-06 | epot = 0.444196976469425 | etot = 0.444199844484873
2  ekin = 1.1471904116116e-05 | epot = 0.444188372551194 | etot = 0.44419984445531
3  ekin = 2.58111930001869e-05 | epot = 0.444174033213041 | etot = 0.444199844406041
4  ekin = 4.58850938051128e-05 | epot = 0.444153959243267 | etot = 0.444199844337072
5  ekin = 7.16925030208812e-05 | epot = 0.444128151745386 | etot = 0.444199844248407
6  ekin = 0.000103232002024255 | epot = 0.444096612138033 | etot = 0.444199844140058
7  ekin = 0.000140501857210243 | epot = 0.444059342154822 | etot = 0.444199844012032
8  ekin = 0.000183500020152745 | epot = 0.444016343844191 | etot = 0.444199843864344
9  ekin = 0.000232224127794334 | epot = 0.443967619569211 | etot = 0.444199843697006
10  ekin = 0.000286671502665157 | epot = 0.443913172007369 | etot = 0.444199843510034
11  ekin = 0.000346839153130907 | epot = 0.443853004150317 | etot = 0.444199843303448
12  ekin = 0.000412723773669828 | epot = 0.443787119303596 | etot = 0.444199843077266
13  ekin = 0.000484321745178706 | epot = 0.44371552108633 | etot = 0.444199842831508
14  ekin = 0.000561629135307795 | epot = 0.443638213430893 | etot = 0.444199842566201
15  ekin = 0.000644641698824626 | epot = 0.443555200582545 | etot = 0.44419984228137
16  ekin = 0.000733354878006623 | epot = 0.443466487099032 | etot = 0.444199841977039
17  ekin = 0.000827763803062479 | epot = 0.443372077850177 | etot = 0.444199841653239
18  ekin = 0.000927863292582209 | epot = 0.443271978017419 | etot = 0.444199841310001
19  ekin = 0.00103364785401581 | epot = 0.443166193093341 | etot = 0.444199840947357
20  ekin = 0.00114511168418044 | epot = 0.443054728881162 | etot = 0.444199840565343
21  ekin = 0.00126224866979604 | epot = 0.442937591494197 | etot = 0.444199840163993
22  ekin = 0.00138505238804932 | epot = 0.442814787355297 | etot = 0.444199839743346
23  ekin = 0.00151351610718595 | epot = 0.442686323196258 | etot = 0.444199839303444
24  ekin = 0.00164763278713099 | epot = 0.442552206057194 | etot = 0.444199838844325
25  ekin = 0.00178739508013728 | epot = 0.442412443285899 | etot = 0.444199838366036
26  ekin = 0.00193279533146187 | epot = 0.442267042537159 | etot = 0.444199837868621
27  ekin = 0.00208382558007018 | epot = 0.442116011772057 | etot = 0.444199837352127
28  ekin = 0.00224047755936795 | epot = 0.441959359257234 | etot = 0.444199836816602
29  ekin = 0.00240274269796079 | epot = 0.441797093564139 | etot = 0.4441998362621
30  ekin = 0.00257061212044109 | epot = 0.441629223568229 | etot = 0.44419983568867
31  ekin = 0.0027440766482024 | epot = 0.441455758448165 | etot = 0.444199835096368
32  ekin = 0.00292312680028096 | epot = 0.441276707684967 | etot = 0.444199834485248
33  ekin = 0.00310775279422421 | epot = 0.441092081061146 | etot = 0.44419983385537
34  ekin = 0.00329794454698636 | epot = 0.440901888659806 | etot = 0.444199833206792
35  ekin = 0.00349369167585065 | epot = 0.440706140863725 | etot = 0.444199832539575
36  ekin = 0.00369498349937818 | epot = 0.440504848354404 | etot = 0.444199831853783
37  ekin = 0.00390180903838335 | epot = 0.440298022111095 | etot = 0.444199831149478
38  ekin = 0.00411415701693542 | epot = 0.440085673409794 | etot = 0.44419983042673
39  ekin = 0.00433201586338637 | epot = 0.439867813822217 | etot = 0.444199829685603
40  ekin = 0.0045553737114246 | epot = 0.439644455214745 | etot = 0.444199828926169
41  ekin = 0.00478421840115452 | epot = 0.439415609747344 | etot = 0.444199828148499
42  ekin = 0.0050185374802017 | epot = 0.439181289872462 | etot = 0.444199827352664
43  ekin = 0.00525831820484349 | epot = 0.438941508333896 | etot = 0.44419982653874
44  ekin = 0.00550354754116487 | epot = 0.438696278165637 | etot = 0.444199825706802
45  ekin = 0.00575421216623941 | epot = 0.438445612690689 | etot = 0.444199824856929
46  ekin = 0.00601029846933506 | epot = 0.438189525519863 | etot = 0.444199823989198
47  ekin = 0.00627179255314466 | epot = 0.437928030550546 | etot = 0.444199823103691
48  ekin = 0.00653868023504089 | epot = 0.437661141965449 | etot = 0.44419982220049
49  ekin = 0.00681094704835553 | epot = 0.437388874231325 | etot = 0.44419982127968
50  ekin = 0.00708857824368283 | epot = 0.437111242097662 | etot = 0.444199820341344
51  ekin = 0.00737155879020663 | epot = 0.436828260595364 | etot = 0.444199819385571
52  ekin = 0.00765987337705129 | epot = 0.436539945035397 | etot = 0.444199818412448
53  ekin = 0.0079535064146559 | epot = 0.43624631100741 | etot = 0.444199817422066
54  ekin = 0.00825244203617184 | epot = 0.435947374378343 | etot = 0.444199816414515
55  ekin = 0.00855666409888325 | epot = 0.435643151291004 | etot = 0.444199815389887
56  ekin = 0.0088661561856503 | epot = 0.435333658162629 | etot = 0.444199814348279
57  ekin = 0.00918090160637502 | epot = 0.43501891168341 | etot = 0.444199813289785
58  ekin = 0.0095008833994894 | epot = 0.434698928815013 | etot = 0.444199812214502
59  ekin = 0.0098260843334656 | epot = 0.434373726789064 | etot = 0.444199811122529
60  ekin = 0.010156486908348 | epot = 0.434043323105618 | etot = 0.444199810013966
61  ekin = 0.0104920733573067 | epot = 0.433707735531606 | etot = 0.444199808888913
62  ekin = 0.0108328256482129 | epot = 0.43336698209926 | etot = 0.444199807747473
63  ekin = 0.0111787254852345 | epot = 0.433021081104516 | etot = 0.44419980658975
64  ekin = 0.0115297543104534 | epot = 0.432670051105396 | etot = 0.444199805415849
65  ekin = 0.0118858933055029 | epot = 0.432313910920374 | etot = 0.444199804225877
66  ekin = 0.0122471233932259 | epot = 0.431952679626715 | etot = 0.444199803019941
67  ekin = 0.0126134252393524 | epot = 0.431586376558798 | etot = 0.44419980179815
68  ekin = 0.0129847792541982 | epot = 0.431215021306416 | etot = 0.444199800560614
69  ekin = 0.0133611655943816 | epot = 0.430838633713064 | etot = 0.444199799307446
70  ekin = 0.0137425641645606 | epot = 0.430457233874197 | etot = 0.444199798038757
71  ekin = 0.0141289546191886 | epot = 0.430070842135473 | etot = 0.444199796754661
72  ekin = 0.0145203163642893 | epot = 0.429679479090985 | etot = 0.444199795455274
73  ekin = 0.0149166285592495 | epot = 0.429283165581463 | etot = 0.444199794140712
74  ekin = 0.0153178701186307 | epot = 0.42888192269246 | etot = 0.444199792811091
75  ekin = 0.0157240197139985 | epot = 0.428475771752532 | etot = 0.444199791466531
76  ekin = 0.01613505577577 | epot = 0.428064734331381 | etot = 0.444199790107151
77  ekin = 0.0165509564950777 | epot = 0.427648832237993 | etot = 0.444199788733071
78  ekin = 0.0169716998256518 | epot = 0.427228087518761 | etot = 0.444199787344412
79  ekin = 0.0173972634857184 | epot = 0.426802522455581 | etot = 0.444199785941299
80  ekin = 0.0178276249599148 | epot = 0.426372159563941 | etot = 0.444199784523856
81  ekin = 0.0182627615012212 | epot = 0.425937021590983 | etot = 0.444199783092204
82  ekin = 0.0187026501329077 | epot = 0.425497131513564 | etot = 0.444199781646471
83  ekin = 0.0191472676504982 | epot = 0.425052512536287 | etot = 0.444199780186785
84  ekin = 0.0195965906237484 | epot = 0.424603188089523 | etot = 0.444199778713272
85  ekin = 0.0200505953986404 | epot = 0.424149181827421 | etot = 0.444199777226061
86  ekin = 0.0205092580993909 | epot = 0.42369051762589 | etot = 0.444199775725281
87  ekin = 0.0209725546304749 | epot = 0.423227219580588 | etot = 0.444199774211063
88  ekin = 0.0214404606786633 | epot = 0.422759312004876 | etot = 0.444199772683539
89  ekin = 0.0219129517150745 | epot = 0.422286819427765 | etot = 0.44419977114284
90  ekin = 0.0223900029972399 | epot = 0.421809766591859 | etot = 0.444199769589098
91  ekin = 0.0228715895711827 | epot = 0.421328178451267 | etot = 0.444199768022449
92  ekin = 0.0233576862735101 | epot = 0.420842080169517 | etot = 0.444199766443027
93  ekin = 0.0238482677335176 | epot = 0.42035149711745 | etot = 0.444199764850967
94  ekin = 0.024343308375307 | epot = 0.419856454871098 | etot = 0.444199763246405
95  ekin = 0.0248427824199155 | epot = 0.419356979209563 | etot = 0.444199761629478
96  ekin = 0.0253466638874576 | epot = 0.418853096112866 | etot = 0.444199760000323
97  ekin = 0.0258549265992784 | epot = 0.418344831759801 | etot = 0.444199758359079
98  ekin = 0.0263675441801178 | epot = 0.417832212525768 | etot = 0.444199756705885
99  ekin = 0.0268844900602869 | epot = 0.417315264980594 | etot = 0.444199755040881
100  ekin = 0.0274057374778538 | epot = 0.416794015886352 | etot = 0.444199753364206
101  ekin = 0.0279312594808408 | epot = 0.41626849219516 | etot = 0.444199751676001
102  ekin = 0.0284610289294317 | epot = 0.415738721046977 | etot = 0.444199749976409
103  ekin = 0.0289950184981886 | epot = 0.415204729767383 | etot = 0.444199748265572
104  ekin = 0.0295332006782788 | epot = 0.414666545865351 | etot = 0.444199746543629
105  ekin = 0.0300755477797103 | epot = 0.414124197031018 | etot = 0.444199744810728
106  ekin = 0.0306220319335772 | epot = 0.413577711133433 | etot = 0.44419974306701
107  ekin = 0.0311726250943129 | epot = 0.413027116218307 | etot = 0.44419974131262
108  ekin = 0.0317272990419524 | epot = 0.41247244050575 | etot = 0.444199739547703
109  ekin = 0.0322860253844026 | epot = 0.411913712388 | etot = 0.444199737772403
110  ekin = 0.0328487755597198 | epot = 0.411350960427147 | etot = 0.444199735986867
111  ekin = 0.0334155208383957 | epot = 0.410784213352843 | etot = 0.444199734191239
112  ekin = 0.03398623232565 | epot = 0.410213500060017 | etot = 0.444199732385668
113  ekin = 0.03456088096373 | epot = 0.409638849606568 | etot = 0.444199730570298
114  ekin = 0.0351394375342171 | epot = 0.409060291211062 | etot = 0.444199728745279
115  ekin = 0.0357218726603393 | epot = 0.408477854250418 | etot = 0.444199726910758
116  ekin = 0.0363081568092903 | epot = 0.407891568257591 | etot = 0.444199725066881
117  ekin = 0.036898260294554 | epot = 0.407301462919244 | etot = 0.444199723213798
118  ekin = 0.0374921532782345 | epot = 0.406707568073424 | etot = 0.444199721351658
119  ekin = 0.0380898057733914 | epot = 0.406109913707217 | etot = 0.444199719480608
120  ekin = 0.0386911876463799 | epot = 0.405508529954419 | etot = 0.444199717600799
121  ekin = 0.0392962686191961 | epot = 0.404903447093182 | etot = 0.444199715712379
122  ekin = 0.0399050182718259 | epot = 0.404294695543671 | etot = 0.444199713815497
123  ekin = 0.0405174060445981 | epot = 0.403682305865706 | etot = 0.444199711910304
124  ekin = 0.0411334012405421 | epot = 0.403066308756406 | etot = 0.444199709996948
125  ekin = 0.0417529730277477 | epot = 0.402446735047834 | etot = 0.444199708075582
126  ekin = 0.0423760904417299 | epot = 0.401823615704623 | etot = 0.444199706146353
127  ekin = 0.0430027223877947 | epot = 0.401196981821621 | etot = 0.444199704209415
128  ekin = 0.0436328376434096 | epot = 0.400566864621506 | etot = 0.444199702264916
129  ekin = 0.0442664048605745 | epot = 0.399933295452432 | etot = 0.444199700313006
130  ekin = 0.0449033925681965 | epot = 0.399296305785641 | etot = 0.444199698353837
131  ekin = 0.0455437691744656 | epot = 0.398655927213095 | etot = 0.44419969638756
132  ekin = 0.0461875029692319 | epot = 0.398012191445094 | etot = 0.444199694414326
133  ekin = 0.0468345621263847 | epot = 0.397365130307899 | etot = 0.444199692434284
134  ekin = 0.0474849147062326 | epot = 0.396714775741352 | etot = 0.444199690447585
135  ekin = 0.0481385286578837 | epot = 0.396061159796497 | etot = 0.444199688454381
136  ekin = 0.0487953718216273 | epot = 0.395404314633195 | etot = 0.444199686454822
137  ekin = 0.0494554119313149 | epot = 0.394744272517746 | etot = 0.44419968444906
138  ekin = 0.0501186166167424 | epot = 0.394081065820502 | etot = 0.444199682437244
139  ekin = 0.0507849534060307 | epot = 0.393414727013495 | etot = 0.444199680419525
140  ekin = 0.051454389728007 | epot = 0.392745288668047 | etot = 0.444199678396054
141  ekin = 0.0521268929145846 | epot = 0.392072783452397 | etot = 0.444199676366982
142  ekin = 0.0528024302031421 | epot = 0.391397244129314 | etot = 0.444199674332456
143  ekin = 0.053480968738901 | epot = 0.390718703553729 | etot = 0.44419967229263
144  ekin = 0.0541624755773022 | epot = 0.390037194670351 | etot = 0.444199670247653
145  ekin = 0.0548469176863805 | epot = 0.389352750511294 | etot = 0.444199668197674
146  ekin = 0.0555342619491372 | epot = 0.388665404193706 | etot = 0.444199666142843
147  ekin = 0.0562244751659106 | epot = 0.387975188917399 | etot = 0.444199664083309
148  ekin = 0.0569175240567435 | epot = 0.387282137962479 | etot = 0.444199662019223
149  ekin = 0.0576133752637489 | epot = 0.386586284686982 | etot = 0.444199659950731
150  ekin = 0.0583119953534722 | epot = 0.385887662524511 | etot = 0.444199657877984
151  ekin = 0.05901335081925 | epot = 0.385186304981879 | etot = 0.444199655801129
152  ekin = 0.0597174080835663 | epot = 0.384482245636749 | etot = 0.444199653720315
153  ekin = 0.0604241335004041 | epot = 0.383775518135286 | etot = 0.44419965163569
154  ekin = 0.0611334933575943 | epot = 0.383066156189808 | etot = 0.444199649547403
155  ekin = 0.0618454538791593 | epot = 0.382354193576438 | etot = 0.444199647455598
156  ekin = 0.0625599812276535 | epot = 0.38163966413277 | etot = 0.444199645360424
157  ekin = 0.0632770415064981 | epot = 0.380922601755528 | etot = 0.444199643262027
158  ekin = 0.0639966007623126 | epot = 0.38020304039824 | etot = 0.444199641160553
159  ekin = 0.0647186249872396 | epot = 0.379481014068909 | etot = 0.444199639056149
160  ekin = 0.0654430801212666 | epot = 0.378756556827693 | etot = 0.44419963694896
161  ekin = 0.0661699320545403 | epot = 0.37802970278459 | etot = 0.44419963483913
162  ekin = 0.0668991466296769 | epot = 0.377300486097129 | etot = 0.444199632726806
163  ekin = 0.0676306896440658 | epot = 0.376568940968065 | etot = 0.444199630612131
164  ekin = 0.068364526852168 | epot = 0.37583510164308 | etot = 0.444199628495248
165  ekin = 0.0691006239678076 | epot = 0.375099002408494 | etot = 0.444199626376302
166  ekin = 0.0698389466664576 | epot = 0.374360677588976 | etot = 0.444199624255434
167  ekin = 0.0705794605875186 | epot = 0.373620161545269 | etot = 0.444199622132787
168  ekin = 0.0713221313365916 | epot = 0.372877488671913 | etot = 0.444199620008504
169  ekin = 0.0720669244877426 | epot = 0.372132693394983 | etot = 0.444199617882726
170  ekin = 0.0728138055857616 | epot = 0.371385810169832 | etot = 0.444199615755593
171  ekin = 0.0735627401484131 | epot = 0.370636873478835 | etot = 0.444199613627248
172  ekin = 0.0743136936686797 | epot = 0.369885917829148 | etot = 0.444199611497828
173  ekin = 0.0750666316169978 | epot = 0.369132977750475 | etot = 0.444199609367473
174  ekin = 0.075821519443486 | epot = 0.368378087792836 | etot = 0.444199607236322
175  ekin = 0.0765783225801649 | epot = 0.36762128252435 | etot = 0.444199605104515
176  ekin = 0.077337006443169 | epot = 0.366862596529019 | etot = 0.444199602972188
177  ekin = 0.0780975364349502 | epot = 0.366102064404528 | etot = 0.444199600839478
178  ekin = 0.078859877946473 | epot = 0.365339720760048 | etot = 0.444199598706521
179  ekin = 0.079623996359401 | epot = 0.364575600214054 | etot = 0.444199596573455
180  ekin = 0.0803898570482743 | epot = 0.363809737392138 | etot = 0.444199594440413
181  ekin = 0.0811574253826782 | epot = 0.363042166924852 | etot = 0.44419959230753
182  ekin = 0.0819266667294028 | epot = 0.362272923445538 | etot = 0.444199590174941
183  ekin = 0.0826975464545933 | epot = 0.361502041588186 | etot = 0.444199588042779
184  ekin = 0.0834700299258907 | epot = 0.360729555985286 | etot = 0.444199585911177
185  ekin = 0.0842440825145633 | epot = 0.359955501265704 | etot = 0.444199583780267
186  ekin = 0.0850196695976279 | epot = 0.359179912052552 | etot = 0.44419958165018
187  ekin = 0.0857967565599619 | epot = 0.358402822961084 | etot = 0.444199579521046
188  ekin = 0.0865753087964049 | epot = 0.357624268596592 | etot = 0.444199577392997
189  ekin = 0.0873552917138504 | epot = 0.35684428355231 | etot = 0.444199575266161
190  ekin = 0.088136670733327 | epot = 0.356062902407339 | etot = 0.444199573140666
191  ekin = 0.0889194112920694 | epot = 0.355280159724573 | etot = 0.444199571016642
192  ekin = 0.089703478845579 | epot = 0.354496090048635 | etot = 0.444199568894214
193  ekin = 0.0904888388696739 | epot = 0.353710727903836 | etot = 0.444199566773509
194  ekin = 0.0912754568625276 | epot = 0.352924107792127 | etot = 0.444199564654655
195  ekin = 0.0920632983466974 | epot = 0.352136264191077 | etot = 0.444199562537774
196  ekin = 0.0928523288711418 | epot = 0.35134723155185 | etot = 0.444199560422992
197  ekin = 0.0936425140132261 | epot = 0.350557044297206 | etot = 0.444199558310432
198  ekin = 0.0944338193807179 | epot = 0.349765736819499 | etot = 0.444199556200217
199  ekin = 0.0952262106137704 | epot = 0.348973343478698 | etot = 0.444199554092469
200  ekin = 0.0960196533868943 | epot = 0.348179898600415 | etot = 0.444199551987309
201  ekin = 0.0968141134109188 | epot = 0.347385436473938 | etot = 0.444199549884857
202  ekin = 0.0976095564349402 | epot = 0.346589991350294 | etot = 0.444199547785234
203  ekin = 0.0984059482482594 | epot = 0.345793597440299 | etot = 0.444199545688558
204  ekin = 0.0992032546823069 | epot = 0.344996288912641 | etot = 0.444199543594948
205  ekin = 0.100001441612557 | epot = 0.344198099891962 | etot = 0.444199541504519
206  ekin = 0.100800474960427 | epot = 0.343399064456963 | etot = 0.44419953941739
207  ekin = 0.101600320695171 | epot = 0.342599216638505 | etot = 0.444199537333676
208  ekin = 0.102400944835751 | epot = 0.34179859041774 | etot = 0.444199535253491
209  ekin = 0.103202313452707 | epot = 0.340997219724243 | etot = 0.44419953317695
210  ekin = 0.104004392670007 | epot = 0.340195138434158 | etot = 0.444199531104165
211  ekin = 0.104807148666886 | epot = 0.339392380368364 | etot = 0.44419952903525
212  ekin = 0.105610547679676 | epot = 0.338588979290638 | etot = 0.444199526970314
213  ekin = 0.10641455600362 | epot = 0.337784968905852 | etot = 0.444199524909471
214  ekin = 0.107219139994671 | epot = 0.336980382858158 | etot = 0.44419952285283
215  ekin = 0.108024266071288 | epot = 0.336175254729209 | etot = 0.444199520800497
216  ekin = 0.108829900716207 | epot = 0.335369618036377 | etot = 0.444199518752584
217  ekin = 0.109636010478206 | epot = 0.334563506230991 | etot = 0.444199516709197
218  ekin = 0.110442561973858 | epot = 0.333756952696585 | etot = 0.444199514670442
219  ekin = 0.111249521889265 | epot = 0.33294999074716 | etot = 0.444199512636425
220  ekin = 0.112056856981788 | epot = 0.332142653625463 | etot = 0.444199510607251
221  ekin = 0.112864534081753 | epot = 0.33133497450127 | etot = 0.444199508583024
222  ekin = 0.113672520094154 | epot = 0.330526986469692 | etot = 0.444199506563846
223  ekin = 0.114480782000335 | epot = 0.329718722549484 | etot = 0.444199504549819
224  ekin = 0.115289286859664 | epot = 0.328910215681382 | etot = 0.444199502541046
225  ekin = 0.116098001811191 | epot = 0.328101498726435 | etot = 0.444199500537626
226  ekin = 0.116906894075292 | epot = 0.327292604464368 | etot = 0.444199498539659
227  ekin = 0.117715930955303 | epot = 0.326483565591941 | etot = 0.444199496547243
228  ekin = 0.118525079839137 | epot = 0.325674414721341 | etot = 0.444199494560477
229  ekin = 0.11933430820089 | epot = 0.324865184378567 | etot = 0.444199492579457
230  ekin = 0.120143583602431 | epot = 0.324055907001848 | etot = 0.444199490604279
231  ekin = 0.12095287369498 | epot = 0.323246614940059 | etot = 0.444199488635038
232  ekin = 0.121762146220673 | epot = 0.322437340451156 | etot = 0.444199486671829
233  ekin = 0.122571369014112 | epot = 0.321628115700632 | etot = 0.444199484714744
234  ekin = 0.123380510003903 | epot = 0.320818972759974 | etot = 0.444199482763877
235  ekin = 0.124189537214175 | epot = 0.320009943605143 | etot = 0.444199480819318
236  ekin = 0.124998418766097 | epot = 0.319201060115062 | etot = 0.444199478881159
237  ekin = 0.125807122879366 | epot = 0.318392354070124 | etot = 0.444199476949489
238  ekin = 0.126615617873692 | epot = 0.317583857150705 | etot = 0.444199475024397
239  ekin = 0.127423872170269 | epot = 0.316775600935702 | etot = 0.444199473105971
240  ekin = 0.128231854293224 | epot = 0.315967616901074 | etot = 0.444199471194297
241  ekin = 0.129039532871062 | epot = 0.315159936418402 | etot = 0.444199469289464
242  ekin = 0.129846876638089 | epot = 0.314352590753464 | etot = 0.444199467391553
243  ekin = 0.13065385443583 | epot = 0.313545611064822 | etot = 0.444199465500652
244  ekin = 0.131460435214421 | epot = 0.312739028402423 | etot = 0.444199463616844
245  ekin = 0.132266588033999 | epot = 0.311932873706211 | etot = 0.444199461740209
246  ekin = 0.133072282066072 | epot = 0.31112717780476 | etot = 0.444199459870832
247  ekin = 0.133877486594877 | epot = 0.310321971413915 | etot = 0.444199458008792
248  ekin = 0.134682171018721 | epot = 0.309517285135447 | etot = 0.444199456154169
249  ekin = 0.135486304851314 | epot = 0.308713149455727 | etot = 0.444199454307041
250  ekin = 0.136289857723081 | epot = 0.307909594744408 | etot = 0.444199452467488
251  ekin = 0.137092799382466 | epot = 0.307106651253121 | etot = 0.444199450635587
252  ekin = 0.13789509969722 | epot = 0.306304349114193 | etot = 0.444199448811413
253  ekin = 0.138696728655673 | epot = 0.30550271833937 | etot = 0.444199446995043
254  ekin = 0.139497656367996 | epot = 0.304701788818553 | etot = 0.444199445186549
255  ekin = 0.140297853067446 | epot = 0.303901590318561 | etot = 0.444199443386007
256  ekin = 0.141097289111599 | epot = 0.30310215248189 | etot = 0.444199441593489
257  ekin = 0.141895934983568 | epot = 0.302303504825499 | etot = 0.444199439809067
258  ekin = 0.142693761293207 | epot = 0.301505676739605 | etot = 0.444199438032812
259  ekin = 0.143490738778302 | epot = 0.300708697486491 | etot = 0.444199436264793
260  ekin = 0.14428683830575 | epot = 0.299912596199332 | etot = 0.444199434505081
261  ekin = 0.145082030872717 | epot = 0.299117401881026 | etot = 0.444199432753743
262  ekin = 0.145876287607794 | epot = 0.298323143403053 | etot = 0.444199431010846
263  ekin = 0.146669579772125 | epot = 0.297529849504333 | etot = 0.444199429276458
264  ekin = 0.147461878760536 | epot = 0.296737548790107 | etot = 0.444199427550644
265  ekin = 0.148253156102638 | epot = 0.29594626973083 | etot = 0.444199425833468
266  ekin = 0.149043383463922 | epot = 0.295156040661074 | etot = 0.444199424124996
267  ekin = 0.14983253264684 | epot = 0.294366889778448 | etot = 0.444199422425288
268  ekin = 0.150620575591874 | epot = 0.293578845142535 | etot = 0.444199420734409
269  ekin = 0.151407484378585 | epot = 0.292791934673834 | etot = 0.444199419052419
270  ekin = 0.152193231226656 | epot = 0.292006186152722 | etot = 0.444199417379378
271  ekin = 0.152977788496915 | epot = 0.291221627218431 | etot = 0.444199415715346
272  ekin = 0.153761128692352 | epot = 0.290438285368031 | etot = 0.444199414060383
273  ekin = 0.15454322445911 | epot = 0.289656187955434 | etot = 0.444199412414545
274  ekin = 0.15532404858748 | epot = 0.288875362190409 | etot = 0.444199410777889
275  ekin = 0.156103574012866 | epot = 0.288095835137608 | etot = 0.444199409150473
276  ekin = 0.156881773816742 | epot = 0.287317633715609 | etot = 0.444199407532351
277  ekin = 0.157658621227606 | epot = 0.286540784695972 | etot = 0.444199405923578
278  ekin = 0.158434089621901 | epot = 0.285765314702305 | etot = 0.444199404324206
279  ekin = 0.159208152524941 | epot = 0.284991250209349 | etot = 0.44419940273429
280  ekin = 0.159980783611809 | epot = 0.284218617542072 | etot = 0.444199401153881
281  ekin = 0.160751956708256 | epot = 0.283447442874773 | etot = 0.444199399583029
282  ekin = 0.161521645791575 | epot = 0.282677752230211 | etot = 0.444199398021786
283  ekin = 0.162289824991465 | epot = 0.281909571478736 | etot = 0.444199396470201
284  ekin = 0.163056468590886 | epot = 0.281142926337436 | etot = 0.444199394928322
285  ekin = 0.163821551026898 | epot = 0.280377842369299 | etot = 0.444199393396196
286  ekin = 0.164585046891483 | epot = 0.279614344982389 | etot = 0.444199391873872
287  ekin = 0.165346930932363 | epot = 0.278852459429032 | etot = 0.444199390361395
288  ekin = 0.166107178053796 | epot = 0.278092210805015 | etot = 0.444199388858811
289  ekin = 0.166865763317363 | epot = 0.2773336240488 | etot = 0.444199387366163
290  ekin = 0.167622661942744 | epot = 0.276576723940752 | etot = 0.444199385883497
291  ekin = 0.168377849308479 | epot = 0.275821535102375 | etot = 0.444199384410854
292  ekin = 0.169131300952713 | epot = 0.275068081995563 | etot = 0.444199382948276
293  ekin = 0.169882992573935 | epot = 0.27431638892187 | etot = 0.444199381495806
294  ekin = 0.1706329000317 | epot = 0.273566480021782 | etot = 0.444199380053483
295  ekin = 0.171380999347338 | epot = 0.272818379274009 | etot = 0.444199378621347
296  ekin = 0.172127266704651 | epot = 0.272072110494786 | etot = 0.444199377199437
297  ekin = 0.172871678450601 | epot = 0.271327697337191 | etot = 0.444199375787792
298  ekin = 0.173614211095981 | epot = 0.270585163290468 | etot = 0.444199374386449
299  ekin = 0.174354841316072 | epot = 0.269844531679372 | etot = 0.444199372995444
300  ekin = 0.175093545951294 | epot = 0.269105825663518 | etot = 0.444199371614812
301  ekin = 0.175830302007842 | epot = 0.268369068236748 | etot = 0.44419937024459
302  ekin = 0.176565086658304 | epot = 0.267634282226508 | etot = 0.444199368884812
303  ekin = 0.177297877242277 | epot = 0.266901490293234 | etot = 0.444199367535511
304  ekin = 0.178028651266961 | epot = 0.266170714929758 | etot = 0.444199366196719
305  ekin = 0.178757386407749 | epot = 0.26544197846072 | etot = 0.444199364868469
306  ekin = 0.179484060508798 | epot = 0.264715303041995 | etot = 0.444199363550793
307  ekin = 0.180208651583595 | epot = 0.263990710660126 | etot = 0.44419936224372
308  ekin = 0.1809311378155 | epot = 0.263268223131781 | etot = 0.444199360947281
309  ekin = 0.181651497558293 | epot = 0.26254786210321 | etot = 0.444199359661504
310  ekin = 0.182369709336695 | epot = 0.261829649049723 | etot = 0.444199358386418
311  ekin = 0.183085751846883 | epot = 0.261113605275168 | etot = 0.444199357122051
312  ekin = 0.183799603956994 | epot = 0.260399751911435 | etot = 0.444199355868429
313  ekin = 0.184511244707614 | epot = 0.259688109917964 | etot = 0.444199354625578
314  ekin = 0.185220653312262 | epot = 0.258978700081264 | etot = 0.444199353393525
315  ekin = 0.18592780915785 | epot = 0.258271543014443 | etot = 0.444199352172293
316  ekin = 0.186632691805149 | epot = 0.257566659156759 | etot = 0.444199350961908
317  ekin = 0.187335280989226 | epot = 0.256864068773166 | etot = 0.444199349762392
318  ekin = 0.188035556619879 | epot = 0.256163791953887 | etot = 0.444199348573767
319  ekin = 0.188733498782065 | epot = 0.25546584861399 | etot = 0.444199347396055
320  ekin = 0.1894290877363 | epot = 0.254770258492979 | etot = 0.444199346229279
321  ekin = 0.190122303919071 | epot = 0.254077041154388 | etot = 0.444199345073459
322  ekin = 0.190813127943213 | epot = 0.253386215985401 | etot = 0.444199343928614
323  ekin = 0.191501540598294 | epot = 0.252697802196468 | etot = 0.444199342794763
324  ekin = 0.192187522850979 | epot = 0.252011818820946 | etot = 0.444199341671925
325  ekin = 0.192871055845383 | epot = 0.251328284714736 | etot = 0.444199340560119
326  ekin = 0.19355212090342 | epot = 0.250647218555941 | etot = 0.444199339459361
327  ekin = 0.194230699525132 | epot = 0.249968638844536 | etot = 0.444199338369667
328  ekin = 0.194906773389013 | epot = 0.249292563902041 | etot = 0.444199337291054
329  ekin = 0.195580324352324 | epot = 0.248619011871213 | etot = 0.444199336223537
330  ekin = 0.196251334451391 | epot = 0.247948000715741 | etot = 0.444199335167131
331  ekin = 0.196919785901895 | epot = 0.247279548219954 | etot = 0.444199334121849
332  ekin = 0.197585661099155 | epot = 0.246613671988549 | etot = 0.444199333087704
333  ekin = 0.198248942618397 | epot = 0.245950389446313 | etot = 0.444199332064711
334  ekin = 0.198909613215013 | epot = 0.245289717837867 | etot = 0.44419933105288
335  ekin = 0.199567655824807 | epot = 0.244631674227415 | etot = 0.444199330052222
336  ekin = 0.200223053564239 | epot = 0.24397627549851 | etot = 0.444199329062749
337  ekin = 0.200875789730649 | epot = 0.243323538353822 | etot = 0.444199328084471
338  ekin = 0.201525847802478 | epot = 0.242673479314919 | etot = 0.444199327117397
339  ekin = 0.202173211439474 | epot = 0.242026114722062 | etot = 0.444199326161537
340  ekin = 0.202817864482892 | epot = 0.241381460734007 | etot = 0.444199325216898
341  ekin = 0.203459790955678 | epot = 0.240739533327811 | etot = 0.444199324283489
342  ekin = 0.204098975062655 | epot = 0.240100348298662 | etot = 0.444199323361317
343  ekin = 0.204735401190683 | epot = 0.239463921259704 | etot = 0.444199322450388
344  ekin = 0.205369053908822 | epot = 0.238830267641885 | etot = 0.444199321550707
345  ekin = 0.205999917968481 | epot = 0.238199402693801 | etot = 0.444199320662282
346  ekin = 0.206627978303555 | epot = 0.237571341481561 | etot = 0.444199319785116
347  ekin = 0.207253220030555 | epot = 0.236946098888658 | etot = 0.444199318919214
348  ekin = 0.207875628448731 | epot = 0.236323689615848 | etot = 0.444199318064579
349  ekin = 0.208495189040178 | epot = 0.235704128181036 | etot = 0.444199317221215
350  ekin = 0.209111887469941 | epot = 0.235087428919182 | etot = 0.444199316389123
351  ekin = 0.209725709586104 | epot = 0.234473605982203 | etot = 0.444199315568306
352  ekin = 0.210336641419874 | epot = 0.233862673338892 | etot = 0.444199314758766
353  ekin = 0.210944669185655 | epot = 0.233254644774849 | etot = 0.444199313960503
354  ekin = 0.211549779281111 | epot = 0.232649533892408 | etot = 0.444199313173519
355  ekin = 0.212151958287221 | epot = 0.232047354110591 | etot = 0.444199312397812
356  ekin = 0.212751192968325 | epot = 0.231448118665056 | etot = 0.444199311633381
357  ekin = 0.213347470272164 | epot = 0.230851840608063 | etot = 0.444199310880226
358  ekin = 0.213940777329902 | epot = 0.230258532808443 | etot = 0.444199310138345
359  ekin = 0.214531101456153 | epot = 0.229668207951583 | etot = 0.444199309407736
360  ekin = 0.215118430148985 | epot = 0.22908087853941 | etot = 0.444199308688396
361  ekin = 0.215702751089927 | epot = 0.228496556890394 | etot = 0.444199307980321
362  ekin = 0.216284052143957 | epot = 0.227915255139551 | etot = 0.444199307283508
363  ekin = 0.216862321359493 | epot = 0.227336985238459 | etot = 0.444199306597952
364  ekin = 0.217437546968363 | epot = 0.226761758955285 | etot = 0.444199305923648
365  ekin = 0.218009717385776 | epot = 0.226189587874814 | etot = 0.444199305260591
366  ekin = 0.218578821210284 | epot = 0.225620483398492 | etot = 0.444199304608775
367  ekin = 0.219144847223724 | epot = 0.22505445674447 | etot = 0.444199303968194
368  ekin = 0.219707784391171 | epot = 0.22449151894767 | etot = 0.444199303338842
369  ekin = 0.220267621860867 | epot = 0.223931680859843 | etot = 0.44419930272071
370  ekin = 0.220824348964146 | epot = 0.223374953149646 | etot = 0.444199302113792
371  ekin = 0.221377955215357 | epot = 0.222821346302721 | etot = 0.444199301518078
372  ekin = 0.22192843031177 | epot = 0.22227087062179 | etot = 0.44419930093356
373  ekin = 0.222475764133481 | epot = 0.221723536226748 | etot = 0.444199300360229
374  ekin = 0.223019946743305 | epot = 0.221179353054771 | etot = 0.444199299798076
375  ekin = 0.223560968386662 | epot = 0.220638330860428 | etot = 0.44419929924709
376  ekin = 0.224098819491457 | epot = 0.220100479215803 | etot = 0.44419929870726
377  ekin = 0.224633490667951 | epot = 0.219565807510626 | etot = 0.444199298178577
378  ekin = 0.225164972708622 | epot = 0.219034324952405 | etot = 0.444199297661027
379  ekin = 0.225693256588025 | epot = 0.218506040566575 | etot = 0.4441992971546
380  ekin = 0.226218333462636 | epot = 0.217980963196647 | etot = 0.444199296659283
381  ekin = 0.226740194670694 | epot = 0.21745910150437 | etot = 0.444199296175063
382  ekin = 0.227258831732035 | epot = 0.216940463969893 | etot = 0.444199295701928
383  ekin = 0.227774236347918 | epot = 0.216425058891944 | etot = 0.444199295239863
384  ekin = 0.228286400400844 | epot = 0.215912894388011 | etot = 0.444199294788854
385  ekin = 0.228795315954363 | epot = 0.215403978394525 | etot = 0.444199294348888
386  ekin = 0.229300975252886 | epot = 0.214898318667064 | etot = 0.444199293919949
387  ekin = 0.229803370721473 | epot = 0.214395922780549 | etot = 0.444199293502023
388  ekin = 0.230302494965632 | epot = 0.21389679812946 | etot = 0.444199293095092
389  ekin = 0.230798340771093 | epot = 0.213400951928048 | etot = 0.444199292699141
390  ekin = 0.231290901103592 | epot = 0.212908391210562 | etot = 0.444199292314155
391  ekin = 0.231780169108635 | epot = 0.21241912283148 | etot = 0.444199291940115
392  ekin = 0.232266138111262 | epot = 0.211933153465744 | etot = 0.444199291577006
393  ekin = 0.2327488016158 | epot = 0.211450489609008 | etot = 0.444199291224808
394  ekin = 0.233228153305616 | epot = 0.210971137577888 | etot = 0.444199290883504
395  ekin = 0.233704187042857 | epot = 0.210495103510219 | etot = 0.444199290553076
396  ekin = 0.234176896868182 | epot = 0.210022393365322 | etot = 0.444199290233504
397  ekin = 0.234646277000498 | epot = 0.209553012924273 | etot = 0.444199289924771
398  ekin = 0.235112321836674 | epot = 0.20908696779018 | etot = 0.444199289626854
399  ekin = 0.235575025951265 | epot = 0.208624263388473 | etot = 0.444199289339737
400  ekin = 0.236034384096214 | epot = 0.208164904967184 | etot = 0.444199289063398
401  ekin = 0.236490391200559 | epot = 0.207708897597256 | etot = 0.444199288797816
402  ekin = 0.236943042370132 | epot = 0.207256246172837 | etot = 0.44419928854297
403  ekin = 0.237392332887244 | epot = 0.206806955411595 | etot = 0.444199288298839
404  ekin = 0.237838258210373 | epot = 0.206361029855028 | etot = 0.444199288065401
405  ekin = 0.23828081397384 | epot = 0.205918473868795 | etot = 0.444199287842635
406  ekin = 0.238719995987485 | epot = 0.205479291643033 | etot = 0.444199287630518
407  ekin = 0.239155800236328 | epot = 0.205043487192698 | etot = 0.444199287429027
408  ekin = 0.239588222880234 | epot = 0.204611064357904 | etot = 0.444199287238138
409  ekin = 0.240017260253563 | epot = 0.204182026804267 | etot = 0.44419928705783
410  ekin = 0.240442908864821 | epot = 0.203756378023257 | etot = 0.444199286888078
411  ekin = 0.2408651653963 | epot = 0.203334121332558 | etot = 0.444199286728858
412  ekin = 0.241284026703719 | epot = 0.202915259876426 | etot = 0.444199286580146
413  ekin = 0.241699489815851 | epot = 0.202499796626066 | etot = 0.444199286441916
414  ekin = 0.242111551934148 | epot = 0.202087734379997 | etot = 0.444199286314145
415  ekin = 0.242520210432365 | epot = 0.201679075764442 | etot = 0.444199286196807
416  ekin = 0.24292546285617 | epot = 0.201273823233706 | etot = 0.444199286089875
417  ekin = 0.243327306922754 | epot = 0.200871979070571 | etot = 0.444199285993325
418  ekin = 0.243725740520434 | epot = 0.200473545386695 | etot = 0.444199285907129
419  ekin = 0.244120761708252 | epot = 0.200078524123011 | etot = 0.444199285831262
420  ekin = 0.244512368715564 | epot = 0.199686917050133 | etot = 0.444199285765697
421  ekin = 0.244900559941631 | epot = 0.199298725768774 | etot = 0.444199285710405
422  ekin = 0.245285333955198 | epot = 0.198913951710164 | etot = 0.444199285665361
423  ekin = 0.24566668949407 | epot = 0.198532596136466 | etot = 0.444199285630536
424  ekin = 0.246044625464688 | epot = 0.198154660141215 | etot = 0.444199285605903
425  ekin = 0.246419140941687 | epot = 0.197780144649746 | etot = 0.444199285591433
426  ekin = 0.246790235167465 | epot = 0.197409050419632 | etot = 0.444199285587096
427  ekin = 0.247157907551734 | epot = 0.197041378041132 | etot = 0.444199285592866
428  ekin = 0.247522157671074 | epot = 0.196677127937638 | etot = 0.444199285608712
429  ekin = 0.247882985268475 | epot = 0.19631630036613 | etot = 0.444199285634605
430  ekin = 0.248240390252885 | epot = 0.195958895417631 | etot = 0.444199285670516
431  ekin = 0.248594372698737 | epot = 0.195604913017677 | etot = 0.444199285716413
432  ekin = 0.248944932845488 | epot = 0.195254352926781 | etot = 0.444199285772269
433  ekin = 0.249292071097143 | epot = 0.194907214740908 | etot = 0.444199285838051
434  ekin = 0.249635788021777 | epot = 0.194563497891953 | etot = 0.44419928591373
435  ekin = 0.249976084351051 | epot = 0.194223201648223 | etot = 0.444199285999273
436  ekin = 0.250312960979725 | epot = 0.193886325114926 | etot = 0.444199286094651
437  ekin = 0.250646418965168 | epot = 0.193552867234663 | etot = 0.444199286199832
438  ekin = 0.25097645952686 | epot = 0.193222826787922 | etot = 0.444199286314782
439  ekin = 0.251303084045889 | epot = 0.192896202393582 | etot = 0.444199286439472
440  ekin = 0.251626294064449 | epot = 0.192572992509419 | etot = 0.444199286573868
441  ekin = 0.251946091285326 | epot = 0.192253195432613 | etot = 0.444199286717939
442  ekin = 0.252262477571387 | epot = 0.191936809300265 | etot = 0.444199286871651
443  ekin = 0.252575454945058 | epot = 0.191623832089914 | etot = 0.444199287034972
444  ekin = 0.252885025587804 | epot = 0.191314261620064 | etot = 0.444199287207868
445  ekin = 0.2531911918396 | epot = 0.191008095550706 | etot = 0.444199287390306
446  ekin = 0.253493956198398 | epot = 0.190705331383856 | etot = 0.444199287582253
447  ekin = 0.253793321319592 | epot = 0.190405966464082 | etot = 0.444199287783674
448  ekin = 0.254089290015481 | epot = 0.190109997979055 | etot = 0.444199287994536
449  ekin = 0.254381865254719 | epot = 0.189817422960085 | etot = 0.444199288214804
450  ekin = 0.254671050161772 | epot = 0.189528238282671 | etot = 0.444199288444443
451  ekin = 0.254956848016362 | epot = 0.189242440667058 | etot = 0.44419928868342
452  ekin = 0.255239262252914 | epot = 0.188960026678785 | etot = 0.444199288931699
453  ekin = 0.255518296459992 | epot = 0.188680992729252 | etot = 0.444199289189244
454  ekin = 0.255793954379737 | epot = 0.188405335076285 | etot = 0.444199289456022
455  ekin = 0.2560662399073 | epot = 0.188133049824696 | etot = 0.444199289731996
456  ekin = 0.256335157090267 | epot = 0.187864132926863 | etot = 0.444199290017129
457  ekin = 0.256600710128084 | epot = 0.187598580183303 | etot = 0.444199290311387
458  ekin = 0.256862903371479 | epot = 0.187336387243254 | etot = 0.444199290614733
459  ekin = 0.257121741321878 | epot = 0.187077549605252 | etot = 0.44419929092713
460  ekin = 0.257377228630817 | epot = 0.186822062617725 | etot = 0.444199291248542
461  ekin = 0.25762937009935 | epot = 0.186569921479583 | etot = 0.444199291578933
462  ekin = 0.25787817067746 | epot = 0.186321121240806 | etot = 0.444199291918265
463  ekin = 0.258123635463452 | epot = 0.186075656803049 | etot = 0.444199292266502
464  ekin = 0.258365769703361 | epot = 0.185833522920244 | etot = 0.444199292623605
465  ekin = 0.258604578790339 | epot = 0.185594714199198 | etot = 0.444199292989537
466  ekin = 0.258840068264051 | epot = 0.18535922510021 | etot = 0.444199293364261
467  ekin = 0.25907224381006 | epot = 0.185127049937679 | etot = 0.444199293747739
468  ekin = 0.259301111259213 | epot = 0.184898182880718 | etot = 0.444199294139932
469  ekin = 0.259526676587022 | epot = 0.18467261795378 | etot = 0.444199294540802
470  ekin = 0.259748945913039 | epot = 0.184450349037272 | etot = 0.444199294950311
471  ekin = 0.259967925500233 | epot = 0.184231369868187 | etot = 0.44419929536842
472  ekin = 0.260183621754359 | epot = 0.184015674040732 | etot = 0.444199295795091
473  ekin = 0.260396041223327 | epot = 0.183803255006958 | etot = 0.444199296230285
474  ekin = 0.260605190596563 | epot = 0.183594106077399 | etot = 0.444199296673961
475  ekin = 0.260811076704373 | epot = 0.183388220421707 | etot = 0.444199297126081
476  ekin = 0.261013706517303 | epot = 0.183185591069303 | etot = 0.444199297586606
477  ekin = 0.261213087145485 | epot = 0.18298621091001 | etot = 0.444199298055495
478  ekin = 0.261409225837997 | epot = 0.182790072694712 | etot = 0.44419929853271
479  ekin = 0.261602129982208 | epot = 0.182597169036001 | etot = 0.444199299018209
480  ekin = 0.261791807103123 | epot = 0.182407492408831 | etot = 0.444199299511953
481  ekin = 0.261978264862722 | epot = 0.18222103515118 | etot = 0.444199300013902
482  ekin = 0.262161511059307 | epot = 0.182037789464708 | etot = 0.444199300524015
483  ekin = 0.262341553626831 | epot = 0.18185774741542 | etot = 0.444199301042251
484  ekin = 0.262518400634232 | epot = 0.181680900934337 | etot = 0.44419930156857
485  ekin = 0.262692060284767 | epot = 0.181507241818164 | etot = 0.44419930210293
486  ekin = 0.262862540915333 | epot = 0.181336761729958 | etot = 0.444199302645291
487  ekin = 0.263029850995797 | epot = 0.181169452199814 | etot = 0.444199303195611
488  ekin = 0.263193999128316 | epot = 0.181005304625534 | etot = 0.44419930375385
489  ekin = 0.26335499404665 | epot = 0.180844310273315 | etot = 0.444199304319965
490  ekin = 0.263512844615485 | epot = 0.18068646027843 | etot = 0.444199304893915
491  ekin = 0.263667559829742 | epot = 0.180531745645915 | etot = 0.444199305475657
492  ekin = 0.263819148813889 | epot = 0.180380157251261 | etot = 0.44419930606515
493  ekin = 0.263967620821244 | epot = 0.180231685841108 | etot = 0.444199306662352
494  ekin = 0.264112985233284 | epot = 0.180086322033936 | etot = 0.444199307267221
495  ekin = 0.264255251558946 | epot = 0.179944056320767 | etot = 0.444199307879713
496  ekin = 0.264394429433923 | epot = 0.179804879065864 | etot = 0.444199308499787
497  ekin = 0.264530528619965 | epot = 0.179668780507436 | etot = 0.444199309127401
498  ekin = 0.264663559004168 | epot = 0.179535750758342 | etot = 0.44419930976251
499  ekin = 0.264793530598269 | epot = 0.179405779806803 | etot = 0.444199310405072
500  ekin = 0.264920453537932 | epot = 0.179278857517112 | etot = 0.444199311055044
501  ekin = 0.265044338082036 | epot = 0.179154973630346 | etot = 0.444199311712382
502  ekin = 0.265165194611957 | epot = 0.179034117765087 | etot = 0.444199312377044
503  ekin = 0.265283033630849 | epot = 0.178916279418137 | etot = 0.444199313048986
504  ekin = 0.26539786576292 | epot = 0.178801447965243 | etot = 0.444199313728164
505  ekin = 0.265509701752715 | epot = 0.178689612661819 | etot = 0.444199314414534
506  ekin = 0.26561855246438 | epot = 0.178580762643673 | etot = 0.444199315108053
507  ekin = 0.26572442888094 | epot = 0.178474886927737 | etot = 0.444199315808677
508  ekin = 0.265827342103563 | epot = 0.178371974412798 | etot = 0.44419931651636
509  ekin = 0.265927303350829 | epot = 0.178272013880231 | etot = 0.44419931723106
510  ekin = 0.266024323957992 | epot = 0.178174993994739 | etot = 0.444199317952731
511  ekin = 0.266118415376241 | epot = 0.178080903305088 | etot = 0.44419931868133
512  ekin = 0.266209589171961 | epot = 0.177989730244849 | etot = 0.444199319416811
513  ekin = 0.266297857025986 | epot = 0.177901463133144 | etot = 0.44419932015913
514  ekin = 0.266383230732856 | epot = 0.177816090175385 | etot = 0.444199320908241
515  ekin = 0.266465722200068 | epot = 0.177733599464033 | etot = 0.444199321664101
516  ekin = 0.266545343447324 | epot = 0.177653978979339 | etot = 0.444199322426663
517  ekin = 0.266622106605782 | epot = 0.177577216590101 | etot = 0.444199323195883
518  ekin = 0.266696023917297 | epot = 0.177503300054418 | etot = 0.444199323971714
519  ekin = 0.266767107733666 | epot = 0.177432217020446 | etot = 0.444199324754112
520  ekin = 0.266835370515869 | epot = 0.177363955027163 | etot = 0.444199325543031
521  ekin = 0.266900824833305 | epot = 0.177298501505121 | etot = 0.444199326338426
522  ekin = 0.266963483363031 | epot = 0.177235843777219 | etot = 0.44419932714025
523  ekin = 0.267023358888993 | epot = 0.177175969059463 | etot = 0.444199327948457
524  ekin = 0.267080464301262 | epot = 0.177118864461739 | etot = 0.444199328763001
525  ekin = 0.267134812595258 | epot = 0.177064516988579 | etot = 0.444199329583837
526  ekin = 0.267186416870982 | epot = 0.177012913539935 | etot = 0.444199330410917
527  ekin = 0.267235290332241 | epot = 0.176964040911955 | etot = 0.444199331244196
528  ekin = 0.267281446285869 | epot = 0.176917885797758 | etot = 0.444199332083627
529  ekin = 0.26732489814095 | epot = 0.176874434788213 | etot = 0.444199332929163
530  ekin = 0.267365659408037 | epot = 0.176833674372721 | etot = 0.444199333780758
531  ekin = 0.267403743698369 | epot = 0.176795590939996 | etot = 0.444199334638366
532  ekin = 0.267439164723085 | epot = 0.176760170778851 | etot = 0.444199335501937
533  ekin = 0.26747193629244 | epot = 0.176727400078986 | etot = 0.444199336371426
534  ekin = 0.267502072315011 | epot = 0.176697264931775 | etot = 0.444199337246786
535  ekin = 0.267529586796912 | epot = 0.176669751331057 | etot = 0.444199338127969
536  ekin = 0.267554493840997 | epot = 0.176644845173931 | etot = 0.444199339014927
537  ekin = 0.267576807646065 | epot = 0.176622532261549 | etot = 0.444199339907615
538  ekin = 0.267596542506067 | epot = 0.176602798299916 | etot = 0.444199340805982
539  ekin = 0.2676137128093 | epot = 0.176585628900683 | etot = 0.444199341709983
540  ekin = 0.267628333037616 | epot = 0.176571009581954 | etot = 0.444199342619569
541  ekin = 0.267640417765609 | epot = 0.176558925769084 | etot = 0.444199343534693
542  ekin = 0.267649981659818 | epot = 0.176549362795487 | etot = 0.444199344455306
543  ekin = 0.267657039477917 | epot = 0.176542305903442 | etot = 0.44419934538136
544  ekin = 0.267661606067907 | epot = 0.176537740244899 | etot = 0.444199346312806
545  ekin = 0.267663696367307 | epot = 0.176535650882291 | etot = 0.444199347249598
546  ekin = 0.267663325402339 | epot = 0.176536022789346 | etot = 0.444199348191685
547  ekin = 0.267660508287117 | epot = 0.176538840851904 | etot = 0.444199349139021
548  ekin = 0.267655260222829 | epot = 0.176544089868726 | etot = 0.444199350091555
549  ekin = 0.267647596496921 | epot = 0.176551754552318 | etot = 0.444199351049239
550  ekin = 0.267637532482278 | epot = 0.176561819529747 | etot = 0.444199352012025
551  ekin = 0.267625083636398 | epot = 0.176574269343466 | etot = 0.444199352979864
552  ekin = 0.267610265500575 | epot = 0.17658908845213 | etot = 0.444199353952705
553  ekin = 0.26759309369907 | epot = 0.176606261231431 | etot = 0.444199354930502
554  ekin = 0.267573583938287 | epot = 0.176625771974916 | etot = 0.444199355913202
555  ekin = 0.26755175200594 | epot = 0.176647604894819 | etot = 0.44419935690076
556  ekin = 0.26752761377023 | epot = 0.176671744122893 | etot = 0.444199357893123
557  ekin = 0.267501185179007 | epot = 0.176698173711236 | etot = 0.444199358890243
558  ekin = 0.267472482258937 | epot = 0.176726877633132 | etot = 0.44419935989207
559  ekin = 0.267441521114671 | epot = 0.176757839783884 | etot = 0.444199360898555
560  ekin = 0.267408317928001 | epot = 0.176791043981646 | etot = 0.444199361909647
561  ekin = 0.267372888957028 | epot = 0.176826473968269 | etot = 0.444199362925297
562  ekin = 0.267335250535317 | epot = 0.176864113410137 | etot = 0.444199363945454
563  ekin = 0.267295419071056 | epot = 0.176903945899013 | etot = 0.444199364970069
564  ekin = 0.267253411046211 | epot = 0.176945954952879 | etot = 0.44419936599909
565  ekin = 0.267209243015685 | epot = 0.176990124016785 | etot = 0.44419936703247
566  ekin = 0.267162931606464 | epot = 0.177036436463691 | etot = 0.444199368070155
567  ekin = 0.267114493516773 | epot = 0.177084875595324 | etot = 0.444199369112097
568  ekin = 0.267063945515224 | epot = 0.177135424643021 | etot = 0.444199370158244
569  ekin = 0.267011304439962 | epot = 0.177188066768585 | etot = 0.444199371208546
570  ekin = 0.266956587197816 | epot = 0.177242785065137 | etot = 0.444199372262952
571  ekin = 0.266899810763437 | epot = 0.177299562557974 | etot = 0.444199373321412
572  ekin = 0.266840992178449 | epot = 0.177358382205423 | etot = 0.444199374383873
573  ekin = 0.266780148550583 | epot = 0.177419226899702 | etot = 0.444199375450285
574  ekin = 0.266717297052821 | epot = 0.177482079467776 | etot = 0.444199376520597
575  ekin = 0.266652454922531 | epot = 0.177546922672227 | etot = 0.444199377594758
576  ekin = 0.26658563946061 | epot = 0.177613739212106 | etot = 0.444199378672716
577  ekin = 0.266516868030612 | epot = 0.177682511723808 | etot = 0.444199379754419
578  ekin = 0.266446158057884 | epot = 0.177753222781933 | etot = 0.444199380839818
579  ekin = 0.266373527028703 | epot = 0.177825854900156 | etot = 0.444199381928858
580  ekin = 0.266298992489397 | epot = 0.177900390532094 | etot = 0.444199383021491
581  ekin = 0.266222572045482 | epot = 0.177976812072179 | etot = 0.444199384117661
582  ekin = 0.266144283360787 | epot = 0.178055101856532 | etot = 0.44419938521732
583  ekin = 0.266064144156579 | epot = 0.178135242163833 | etot = 0.444199386320413
584  ekin = 0.265982172210689 | epot = 0.1782172152162 | etot = 0.444199387426889
585  ekin = 0.265898385356634 | epot = 0.178301003180064 | etot = 0.444199388536698
586  ekin = 0.265812801482737 | epot = 0.178386588167046 | etot = 0.444199389649783
587  ekin = 0.265725438531253 | epot = 0.178473952234843 | etot = 0.444199390766096
588  ekin = 0.265636314497481 | epot = 0.178563077388102 | etot = 0.444199391885583
589  ekin = 0.265545447428885 | epot = 0.178653945579306 | etot = 0.444199393008191
590  ekin = 0.265452855424208 | epot = 0.17874653870966 | etot = 0.444199394133868
591  ekin = 0.265358556632588 | epot = 0.178840838629972 | etot = 0.44419939526256
592  ekin = 0.265262569252669 | epot = 0.178936827141548 | etot = 0.444199396394217
593  ekin = 0.265164911531715 | epot = 0.179034485997068 | etot = 0.444199397528783
594  ekin = 0.265065601764717 | epot = 0.179133796901489 | etot = 0.444199398666206
595  ekin = 0.264964658293507 | epot = 0.179234741512927 | etot = 0.444199399806434
596  ekin = 0.264862099505857 | epot = 0.179337301443556 | etot = 0.444199400949413
597  ekin = 0.264757943834595 | epot = 0.179441458260495 | etot = 0.44419940209509
598  ekin = 0.264652209756701 | epot = 0.17954719348671 | etot = 0.444199403243412
599  ekin = 0.264544915792417 | epot = 0.179654488601907 | etot = 0.444199404394324
600  ekin = 0.264436080504344 | epot = 0.179763325043431 | etot = 0.444199405547775
601  ekin = 0.264325722496546 | epot = 0.179873684207162 | etot = 0.444199406703708
602  ekin = 0.264213860413648 | epot = 0.179985547448425 | etot = 0.444199407862073
603  ekin = 0.264100512939935 | epot = 0.18009889608288 | etot = 0.444199409022814
604  ekin = 0.263985698798446 | epot = 0.180213711387432 | etot = 0.444199410185879
605  ekin = 0.263869436750075 | epot = 0.180329974601136 | etot = 0.444199411351211
606  ekin = 0.263751745592661 | epot = 0.180447666926098 | etot = 0.444199412518759
607  ekin = 0.263632644160079 | epot = 0.180566769528388 | etot = 0.444199413688467
608  ekin = 0.263512151321341 | epot = 0.180687263538941 | etot = 0.444199414860282
609  ekin = 0.263390285979674 | epot = 0.180809130054476 | etot = 0.444199416034149
610  ekin = 0.26326706707162 | epot = 0.180932350138394 | etot = 0.444199417210014
611  ekin = 0.26314251356612 | epot = 0.181056904821704 | etot = 0.444199418387823
612  ekin = 0.263016644463598 | epot = 0.181182775103923 | etot = 0.444199419567521
613  ekin = 0.262889478795052 | epot = 0.181309941954001 | etot = 0.444199420749053
614  ekin = 0.262761035621137 | epot = 0.181438386311227 | etot = 0.444199421932364
615  ekin = 0.262631334031247 | epot = 0.181568089086154 | etot = 0.444199423117401
616  ekin = 0.262500393142597 | epot = 0.181699031161511 | etot = 0.444199424304109
617  ekin = 0.262368232099308 | epot = 0.181831193393122 | etot = 0.44419942549243
618  ekin = 0.262234870071483 | epot = 0.18196455661083 | etot = 0.444199426682313
619  ekin = 0.262100326254287 | epot = 0.182099101619414 | etot = 0.444199427873701
620  ekin = 0.261964619867027 | epot = 0.182234809199511 | etot = 0.444199429066538
621  ekin = 0.261827770152228 | epot = 0.182371660108542 | etot = 0.44419943026077
622  ekin = 0.261689796374706 | epot = 0.182509635081637 | etot = 0.444199431456342
623  ekin = 0.261550717820646 | epot = 0.182648714832552 | etot = 0.444199432653199
624  ekin = 0.261410553796676 | epot = 0.182788880054607 | etot = 0.444199433851283
625  ekin = 0.261269323628938 | epot = 0.182930111421603 | etot = 0.444199435050541
626  ekin = 0.261127046662158 | epot = 0.183072389588759 | etot = 0.444199436250917
627  ekin = 0.260983742258723 | epot = 0.183215695193632 | etot = 0.444199437452355
628  ekin = 0.260839429797745 | epot = 0.183360008857053 | etot = 0.444199438654798
629  ekin = 0.260694128674132 | epot = 0.183505311184062 | etot = 0.444199439858193
630  ekin = 0.260547858297655 | epot = 0.183651582764827 | etot = 0.444199441062482
631  ekin = 0.260400638092019 | epot = 0.183798804175592 | etot = 0.44419944226761
632  ekin = 0.260252487493922 | epot = 0.183946955979598 | etot = 0.444199443473521
633  ekin = 0.260103425952129 | epot = 0.184096018728029 | etot = 0.444199444680158
634  ekin = 0.259953472926527 | epot = 0.184245972960938 | etot = 0.444199445887465
635  ekin = 0.259802647887199 | epot = 0.184396799208187 | etot = 0.444199447095386
636  ekin = 0.259650970313477 | epot = 0.184548477990388 | etot = 0.444199448303865
637  ekin = 0.25949845969301 | epot = 0.184700989819837 | etot = 0.444199449512847
638  ekin = 0.259345135520825 | epot = 0.184854315201448 | etot = 0.444199450722273
639  ekin = 0.259191017298384 | epot = 0.185008434633704 | etot = 0.444199451932088
640  ekin = 0.259036124532647 | epot = 0.185163328609589 | etot = 0.444199453142236
641  ekin = 0.258880476735131 | epot = 0.185318977617529 | etot = 0.444199454352659
642  ekin = 0.258724093420964 | epot = 0.185475362142337 | etot = 0.444199455563301
643  ekin = 0.25856699410795 | epot = 0.185632462666156 | etot = 0.444199456774106
644  ekin = 0.258409198315619 | epot = 0.185790259669397 | etot = 0.444199457985016
645  ekin = 0.258250725564288 | epot = 0.185948733631687 | etot = 0.444199459195974
646  ekin = 0.258091595374114 | epot = 0.186107865032811 | etot = 0.444199460406925
647  ekin = 0.257931827264152 | epot = 0.186267634353659 | etot = 0.44419946161781
648  ekin = 0.257771440751406 | epot = 0.186428022077169 | etot = 0.444199462828574
649  ekin = 0.257610455349886 | epot = 0.186589008689273 | etot = 0.444199464039159
650  ekin = 0.257448890569661 | epot = 0.186750574679847 | etot = 0.444199465249508
651  ekin = 0.257286765915911 | epot = 0.186912700543653 | etot = 0.444199466459564
652  ekin = 0.25712410088798 | epot = 0.187075366781289 | etot = 0.444199467669269
653  ekin = 0.256960914978428 | epot = 0.187238553900138 | etot = 0.444199468878567
654  ekin = 0.256797227672086 | epot = 0.187402242415313 | etot = 0.444199470087399
655  ekin = 0.256633058445101 | epot = 0.187566412850609 | etot = 0.444199471295711
656  ekin = 0.256468426763993 | epot = 0.187731045739449 | etot = 0.444199472503442
657  ekin = 0.256303352084701 | epot = 0.187896121625836 | etot = 0.444199473710537
658  ekin = 0.256137853851636 | epot = 0.188061621065302 | etot = 0.444199474916938
659  ekin = 0.255971951496732 | epot = 0.188227524625855 | etot = 0.444199476122587
660  ekin = 0.255805664438493 | epot = 0.188393812888934 | etot = 0.444199477327427
661  ekin = 0.255639012081044 | epot = 0.188560466450357 | etot = 0.444199478531401
662  ekin = 0.25547201381318 | epot = 0.188727465921271 | etot = 0.444199479734451
663  ekin = 0.255304689007414 | epot = 0.188894791929103 | etot = 0.444199480936518
664  ekin = 0.255137057019031 | epot = 0.189062425118515 | etot = 0.444199482137546
665  ekin = 0.254969137185129 | epot = 0.189230346152348 | etot = 0.444199483337477
666  ekin = 0.254800948823674 | epot = 0.18939853571258 | etot = 0.444199484536254
667  ekin = 0.254632511232547 | epot = 0.189566974501272 | etot = 0.444199485733819
668  ekin = 0.254463843688592 | epot = 0.189735643241522 | etot = 0.444199486930114
669  ekin = 0.254294965446665 | epot = 0.189904522678416 | etot = 0.444199488125081
670  ekin = 0.254125895738684 | epot = 0.190073593579978 | etot = 0.444199489318662
671  ekin = 0.253956653772676 | epot = 0.190242836738125 | etot = 0.444199490510801
672  ekin = 0.253787258731826 | epot = 0.190412232969611 | etot = 0.444199491701437
673  ekin = 0.253617729773529 | epot = 0.190581763116987 | etot = 0.444199492890516
674  ekin = 0.253448086028435 | epot = 0.190751408049543 | etot = 0.444199494077978
675  ekin = 0.253278346599503 | epot = 0.190921148664262 | etot = 0.444199495263765
676  ekin = 0.253108530561046 | epot = 0.191090965886774 | etot = 0.444199496447821
677  ekin = 0.252938656957785 | epot = 0.191260840672301 | etot = 0.444199497630086
678  ekin = 0.252768744803896 | epot = 0.191430754006608 | etot = 0.444199498810504
679  ekin = 0.252598813082064 | epot = 0.191600686906954 | etot = 0.444199499989017
680  ekin = 0.252428880742529 | epot = 0.191770620423036 | etot = 0.444199501165565
681  ekin = 0.252258966702145 | epot = 0.191940535637948 | etot = 0.444199502340093
682  ekin = 0.252089089843425 | epot = 0.192110413669117 | etot = 0.444199503512542
683  ekin = 0.251919269013595 | epot = 0.192280235669259 | etot = 0.444199504682854
684  ekin = 0.251749523023649 | epot = 0.192449982827322 | etot = 0.444199505850971
685  ekin = 0.251579870647402 | epot = 0.192619636369434 | etot = 0.444199507016836
686  ekin = 0.25141033062054 | epot = 0.19278917755985 | etot = 0.444199508180391
687  ekin = 0.251240921639682 | epot = 0.192958587701895 | etot = 0.444199509341578
688  ekin = 0.251071662361429 | epot = 0.19312784813891 | etot = 0.444199510500339
689  ekin = 0.250902571401422 | epot = 0.193296940255196 | etot = 0.444199511656618
690  ekin = 0.250733667333401 | epot = 0.193465845476955 | etot = 0.444199512810355
691  ekin = 0.250564968688259 | epot = 0.193634545273235 | etot = 0.444199513961495
692  ekin = 0.250396493953105 | epot = 0.193803021156873 | etot = 0.444199515109978
693  ekin = 0.250228261570319 | epot = 0.193971254685428 | etot = 0.444199516255748
694  ekin = 0.250060289936615 | epot = 0.194139227462131 | etot = 0.444199517398746
695  ekin = 0.249892597402101 | epot = 0.194306921136814 | etot = 0.444199518538915
696  ekin = 0.249725202269343 | epot = 0.194474317406855 | etot = 0.444199519676198
697  ekin = 0.249558122792427 | epot = 0.19464139801811 | etot = 0.444199520810537
698  ekin = 0.249391377176025 | epot = 0.194808144765852 | etot = 0.444199521941876
699  ekin = 0.249224983574457 | epot = 0.1949745394957 | etot = 0.444199523070156
700  ekin = 0.249058960090762 | epot = 0.195140564104559 | etot = 0.444199524195321
701  ekin = 0.248893324775765 | epot = 0.195306200541548 | etot = 0.444199525317313
702  ekin = 0.248728095627146 | epot = 0.195471430808928 | etot = 0.444199526436075
703  ekin = 0.24856329058851 | epot = 0.195636236963039 | etot = 0.44419952755155
704  ekin = 0.248398927548461 | epot = 0.19580060111522 | etot = 0.444199528663681
705  ekin = 0.248235024339672 | epot = 0.195964505432738 | etot = 0.44419952977241
706  ekin = 0.248071598737964 | epot = 0.196127932139718 | etot = 0.444199530877682
707  ekin = 0.247908668461382 | epot = 0.196290863518057 | etot = 0.444199531979439
708  ekin = 0.247746251169271 | epot = 0.196453281908355 | etot = 0.444199533077625
709  ekin = 0.247584364461355 | epot = 0.196615169710827 | etot = 0.444199534172182
710  ekin = 0.247423025876823 | epot = 0.196776509386233 | etot = 0.444199535263056
711  ekin = 0.247262252893408 | epot = 0.196937283456779 | etot = 0.444199536350187
712  ekin = 0.247102062926474 | epot = 0.197097474507047 | etot = 0.444199537433521
713  ekin = 0.246942473328101 | epot = 0.197257065184901 | etot = 0.444199538513002
714  ekin = 0.246783501386174 | epot = 0.197416038202398 | etot = 0.444199539588572
715  ekin = 0.246625164323475 | epot = 0.1975743763367 | etot = 0.444199540660175
716  ekin = 0.246467479296776 | epot = 0.19773206243098 | etot = 0.444199541727757
717  ekin = 0.24631046339593 | epot = 0.19788907939533 | etot = 0.44419954279126
718  ekin = 0.246154133642969 | epot = 0.198045410207659 | etot = 0.444199543850628
719  ekin = 0.245998506991206 | epot = 0.198201037914602 | etot = 0.444199544905808
720  ekin = 0.245843600324331 | epot = 0.19835594563241 | etot = 0.444199545956741
721  ekin = 0.245689430455517 | epot = 0.198510116547856 | etot = 0.444199547003374
722  ekin = 0.245536014126527 | epot = 0.198663533919123 | etot = 0.44419954804565
723  ekin = 0.245383368006817 | epot = 0.198816181076698 | etot = 0.444199549083515
724  ekin = 0.24523150869265 | epot = 0.198968041424264 | etot = 0.444199550116913
725  ekin = 0.245080452706207 | epot = 0.199119098439583 | etot = 0.44419955114579
726  ekin = 0.244930216494705 | epot = 0.199269335675386 | etot = 0.44419955217009
727  ekin = 0.244780816429509 | epot = 0.199418736760251 | etot = 0.44419955318976
728  ekin = 0.244632268805259 | epot = 0.199567285399485 | etot = 0.444199554204744
729  ekin = 0.244484589838989 | epot = 0.199714965375998 | etot = 0.444199555214988
730  ekin = 0.244337795669254 | epot = 0.199861760551183 | etot = 0.444199556220437
731  ekin = 0.244191902355256 | epot = 0.200007654865782 | etot = 0.444199557221038
732  ekin = 0.244046925875982 | epot = 0.200152632340755 | etot = 0.444199558216736
733  ekin = 0.243902882129331 | epot = 0.200296677078148 | etot = 0.444199559207479
734  ekin = 0.243759786931255 | epot = 0.200439773261957 | etot = 0.444199560193212
735  ekin = 0.243617656014901 | epot = 0.20058190515898 | etot = 0.444199561173881
736  ekin = 0.243476505029749 | epot = 0.200723057119685 | etot = 0.444199562149434
737  ekin = 0.243336349540765 | epot = 0.200863213579052 | etot = 0.444199563119817
738  ekin = 0.243197205027546 | epot = 0.201002359057432 | etot = 0.444199564084977
739  ekin = 0.243059086883475 | epot = 0.201140478161388 | etot = 0.444199565044863
740  ekin = 0.242922010414877 | epot = 0.201277555584543 | etot = 0.44419956599942
741  ekin = 0.24278599084018 | epot = 0.201413576108417 | etot = 0.444199566948597
742  ekin = 0.242651043289077 | epot = 0.201548524603265 | etot = 0.444199567892342
743  ekin = 0.242517182801692 | epot = 0.20168238602891 | etot = 0.444199568830602
744  ekin = 0.242384424327751 | epot = 0.201815145435575 | etot = 0.444199569763326
745  ekin = 0.242252782725757 | epot = 0.201946787964706 | etot = 0.444199570690462
746  ekin = 0.242122272762166 | epot = 0.202077298849794 | etot = 0.44419957161196
747  ekin = 0.241992909110571 | epot = 0.202206663417196 | etot = 0.444199572527767
748  ekin = 0.241864706350883 | epot = 0.202334867086949 | etot = 0.444199573437833
749  ekin = 0.241737678968523 | epot = 0.202461895373583 | etot = 0.444199574342106
750  ekin = 0.241611841353614 | epot = 0.202587733886924 | etot = 0.444199575240538
751  ekin = 0.241487207800179 | epot = 0.202712368332897 | etot = 0.444199576133077
752  ekin = 0.241363792505341 | epot = 0.202835784514332 | etot = 0.444199577019673
753  ekin = 0.241241609568528 | epot = 0.20295796833175 | etot = 0.444199577900277
754  ekin = 0.241120672990682 | epot = 0.203078905784157 | etot = 0.444199578774839
755  ekin = 0.241000996673476 | epot = 0.203198582969835 | etot = 0.444199579643311
756  ekin = 0.240882594418526 | epot = 0.203316986087115 | etot = 0.444199580505641
757  ekin = 0.240765479926619 | epot = 0.203434101435164 | etot = 0.444199581361783
758  ekin = 0.240649666796936 | epot = 0.203549915414751 | etot = 0.444199582211687
759  ekin = 0.240535168526285 | epot = 0.20366441452902 | etot = 0.444199583055305
760  ekin = 0.240421998508336 | epot = 0.203777585384254 | etot = 0.44419958389259
761  ekin = 0.24031017003286 | epot = 0.203889414690632 | etot = 0.444199584723492
762  ekin = 0.240199696284979 | epot = 0.203999889262988 | etot = 0.444199585547967
763  ekin = 0.24009059034441 | epot = 0.204108996021556 | etot = 0.444199586365965
764  ekin = 0.239982865184721 | epot = 0.204216721992719 | etot = 0.444199587177441
765  ekin = 0.239876533672596 | epot = 0.204323054309751 | etot = 0.444199587982347
766  ekin = 0.239771608567092 | epot = 0.204427980213546 | etot = 0.444199588780638
767  ekin = 0.239668102518911 | epot = 0.204531487053355 | etot = 0.444199589572266
768  ekin = 0.239566028069677 | epot = 0.20463356228751 | etot = 0.444199590357187
769  ekin = 0.239465397651213 | epot = 0.204734193484142 | etot = 0.444199591135355
770  ekin = 0.239366223584829 | epot = 0.204833368321897 | etot = 0.444199591906726
771  ekin = 0.239268518080605 | epot = 0.204931074590648 | etot = 0.444199592671253
772  ekin = 0.239172293236697 | epot = 0.205027300192196 | etot = 0.444199593428894
773  ekin = 0.23907756103863 | epot = 0.205122033140974 | etot = 0.444199594179603
774  ekin = 0.238984333358604 | epot = 0.205215261564733 | etot = 0.444199594923337
775  ekin = 0.238892621954813 | epot = 0.20530697370524 | etot = 0.444199595660053
776  ekin = 0.238802438470755 | epot = 0.205397157918953 | etot = 0.444199596389708
777  ekin = 0.238713794434558 | epot = 0.205485802677699 | etot = 0.444199597112257
778  ekin = 0.238626701258311 | epot = 0.205572896569349 | etot = 0.444199597827661
779  ekin = 0.238541170237395 | epot = 0.205658428298481 | etot = 0.444199598535875
780  ekin = 0.238457212549823 | epot = 0.205742386687036 | etot = 0.444199599236859
781  ekin = 0.238374839255589 | epot = 0.205824760674981 | etot = 0.444199599930571
782  ekin = 0.238294061296022 | epot = 0.205905539320947 | etot = 0.444199600616969
783  ekin = 0.238214889493137 | epot = 0.205984711802877 | etot = 0.444199601296014
784  ekin = 0.238137334549007 | epot = 0.206062267418658 | etot = 0.444199601967665
785  ekin = 0.238061407045129 | epot = 0.206138195586753 | etot = 0.444199602631882
786  ekin = 0.237987117441801 | epot = 0.206212485846824 | etot = 0.444199603288625
787  ekin = 0.237914476077509 | epot = 0.206285127860347 | etot = 0.444199603937856
788  ekin = 0.23784349316831 | epot = 0.206356111411224 | etot = 0.444199604579534
789  ekin = 0.237774178807233 | epot = 0.20642542640639 | etot = 0.444199605213623
790  ekin = 0.237706542963679 | epot = 0.206493062876405 | etot = 0.444199605840084
791  ekin = 0.237640595482829 | epot = 0.206559010976051 | etot = 0.44419960645888
792  ekin = 0.237576346085061 | epot = 0.206623260984912 | etot = 0.444199607069973
793  ekin = 0.237513804365371 | epot = 0.206685803307956 | etot = 0.444199607673327
794  ekin = 0.2374529797928 | epot = 0.206746628476105 | etot = 0.444199608268904
795  ekin = 0.237393881709873 | epot = 0.206805727146798 | etot = 0.44419960885667
796  ekin = 0.237336519332039 | epot = 0.20686309010455 | etot = 0.444199609436588
797  ekin = 0.237280901747119 | epot = 0.206918708261505 | etot = 0.444199610008624
798  ekin = 0.237227037914764 | epot = 0.206972572657979 | etot = 0.444199610572742
799  ekin = 0.237174936665918 | epot = 0.207024674462992 | etot = 0.444199611128909
800  ekin = 0.237124606702286 | epot = 0.207075004974805 | etot = 0.444199611677091
801  ekin = 0.237076056595813 | epot = 0.20712355562144 | etot = 0.444199612217253
802  ekin = 0.237029294788169 | epot = 0.207170317961194 | etot = 0.444199612749363
803  ekin = 0.236984329590238 | epot = 0.207215283683152 | etot = 0.44419961327339
804  ekin = 0.236941169181618 | epot = 0.207258444607681 | etot = 0.4441996137893
805  ekin = 0.23689982161013 | epot = 0.207299792686932 | etot = 0.444199614297061
806  ekin = 0.236860294791326 | epot = 0.207339320005317 | etot = 0.444199614796643
807  ekin = 0.236822596508016 | epot = 0.20737701878 | etot = 0.444199615288016
808  ekin = 0.236786734409792 | epot = 0.207412881361356 | etot = 0.444199615771148
809  ekin = 0.236752716012567 | epot = 0.207446900233443 | etot = 0.44419961624601
810  ekin = 0.236720548698118 | epot = 0.207479068014455 | etot = 0.444199616712573
811  ekin = 0.236690239713636 | epot = 0.207509377457171 | etot = 0.444199617170807
812  ekin = 0.236661796171289 | epot = 0.207537821449396 | etot = 0.444199617620685
813  ekin = 0.236635225047782 | epot = 0.207564393014396 | etot = 0.444199618062178
814  ekin = 0.236610533183942 | epot = 0.207589085311318 | etot = 0.44419961849526
815  ekin = 0.236587727284291 | epot = 0.207611891635612 | etot = 0.444199618919903
816  ekin = 0.236566813916641 | epot = 0.207632805419439 | etot = 0.44419961933608
817  ekin = 0.236547799511695 | epot = 0.207651820232072 | etot = 0.444199619743767
818  ekin = 0.236530690362647 | epot = 0.20766892978029 | etot = 0.444199620142937
819  ekin = 0.236515492624805 | epot = 0.207684127908761 | etot = 0.444199620533566
820  ekin = 0.236502212315206 | epot = 0.207697408600422 | etot = 0.444199620915628
821  ekin = 0.236490855312255 | epot = 0.207708765976847 | etot = 0.444199621289101
822  ekin = 0.236481427355355 | epot = 0.207718194298606 | etot = 0.444199621653961
823  ekin = 0.236473934044565 | epot = 0.207725687965619 | etot = 0.444199622010184
824  ekin = 0.236468380840248 | epot = 0.207731241517501 | etot = 0.444199622357749
825  ekin = 0.23646477306274 | epot = 0.207734849633894 | etot = 0.444199622696634
826  ekin = 0.236463115892019 | epot = 0.207736507134798 | etot = 0.444199623026817
827  ekin = 0.23646341436739 | epot = 0.207736208980888 | etot = 0.444199623348278
828  ekin = 0.236465673387174 | epot = 0.207733950273823 | etot = 0.444199623660997
829  ekin = 0.236469897708404 | epot = 0.207729726256548 | etot = 0.444199623964952
830  ekin = 0.236476091946535 | epot = 0.207723532313592 | etot = 0.444199624260127
831  ekin = 0.236484260575157 | epot = 0.207715363971344 | etot = 0.444199624546501
832  ekin = 0.236494407925722 | epot = 0.207705216898335 | etot = 0.444199624824057
833  ekin = 0.236506538187275 | epot = 0.207693086905502 | etot = 0.444199625092777
834  ekin = 0.236520655406198 | epot = 0.207678969946447 | etot = 0.444199625352645
835  ekin = 0.236536763485957 | epot = 0.207662862117685 | etot = 0.444199625603643
836  ekin = 0.236554866186867 | epot = 0.207644759658889 | etot = 0.444199625845756
837  ekin = 0.236574967125853 | epot = 0.207624658953114 | etot = 0.444199626078968
838  ekin = 0.236597069776237 | epot = 0.207602556527027 | etot = 0.444199626303264
839  ekin = 0.236621177467516 | epot = 0.207578449051115 | etot = 0.444199626518631
840  ekin = 0.23664729338516 | epot = 0.207552333339894 | etot = 0.444199626725055
841  ekin = 0.23667542057042 | epot = 0.207524206352103 | etot = 0.444199626922523
842  ekin = 0.236705561920135 | epot = 0.207494065190888 | etot = 0.444199627111022
843  ekin = 0.236737720186559 | epot = 0.207461907103981 | etot = 0.44419962729054
844  ekin = 0.236771897977195 | epot = 0.207427729483871 | etot = 0.444199627461066
845  ekin = 0.236808097754628 | epot = 0.207391529867961 | etot = 0.444199627622589
846  ekin = 0.236846321836384 | epot = 0.207353305938715 | etot = 0.444199627775098
847  ekin = 0.236886572394782 | epot = 0.207313055523803 | etot = 0.444199627918585
848  ekin = 0.23692885145681 | epot = 0.207270776596231 | etot = 0.44419962805304
849  ekin = 0.236973160903995 | epot = 0.20722646727446 | etot = 0.444199628178455
850  ekin = 0.237019502472298 | epot = 0.207180125822522 | etot = 0.44419962829482
851  ekin = 0.237067877752006 | epot = 0.207131750650125 | etot = 0.444199628402131
852  ekin = 0.237118288187639 | epot = 0.20708134031274 | etot = 0.444199628500379
853  ekin = 0.237170735077866 | epot = 0.207028893511693 | etot = 0.444199628589559
854  ekin = 0.23722521957543 | epot = 0.206974409094234 | etot = 0.444199628669664
855  ekin = 0.237281742687082 | epot = 0.206917886053608 | etot = 0.444199628740691
856  ekin = 0.237340305273528 | epot = 0.206859323529107 | etot = 0.444199628802634
857  ekin = 0.237400908049374 | epot = 0.206798720806116 | etot = 0.44419962885549
858  ekin = 0.237463551583102 | epot = 0.206736077316155 | etot = 0.444199628899257
859  ekin = 0.237528236297029 | epot = 0.206671392636903 | etot = 0.444199628933931
860  ekin = 0.237594962467299 | epot = 0.206604666492211 | etot = 0.44419962895951
861  ekin = 0.237663730223871 | epot = 0.206535898752123 | etot = 0.444199628975994
862  ekin = 0.23773453955052 | epot = 0.20646508943286 | etot = 0.44419962898338
863  ekin = 0.237807390284848 | epot = 0.206392238696821 | etot = 0.444199628981669
864  ekin = 0.237882282118307 | epot = 0.206317346852555 | etot = 0.444199628970863
865  ekin = 0.237959214596228 | epot = 0.206240414354733 | etot = 0.444199628950961
866  ekin = 0.238038187117858 | epot = 0.206161441804108 | etot = 0.444199628921965
867  ekin = 0.238119198936414 | epot = 0.206080429947465 | etot = 0.44419962888388
868  ekin = 0.238202249159143 | epot = 0.205997379677563 | etot = 0.444199628836706
869  ekin = 0.238287336747386 | epot = 0.20591229203306 | etot = 0.444199628780447
870  ekin = 0.238374460516662 | epot = 0.205825168198445 | etot = 0.444199628715107
871  ekin = 0.238463619136754 | epot = 0.205736009503937 | etot = 0.444199628640691
872  ekin = 0.238554811131809 | epot = 0.205644817425397 | etot = 0.444199628557206
873  ekin = 0.238648034880444 | epot = 0.205551593584213 | etot = 0.444199628464657
874  ekin = 0.238743288615866 | epot = 0.205456339747183 | etot = 0.444199628363049
875  ekin = 0.238840570426 | epot = 0.205359057826391 | etot = 0.444199628252392
876  ekin = 0.238939878253626 | epot = 0.205259749879066 | etot = 0.444199628132692
877  ekin = 0.239041209896524 | epot = 0.205158418107434 | etot = 0.444199628003958
878  ekin = 0.239144563007634 | epot = 0.205055064858565 | etot = 0.444199627866199
879  ekin = 0.239249935095224 | epot = 0.204949692624201 | etot = 0.444199627719425
880  ekin = 0.239357323523064 | epot = 0.204842304040583 | etot = 0.444199627563647
881  ekin = 0.239466725510612 | epot = 0.204732901888263 | etot = 0.444199627398874
882  ekin = 0.239578138133213 | epot = 0.204621489091906 | etot = 0.444199627225119
883  ekin = 0.239691558322306 | epot = 0.204508068720089 | etot = 0.444199627042395
884  ekin = 0.239806982865635 | epot = 0.204392643985078 | etot = 0.444199626850713
885  ekin = 0.239924408407479 | epot = 0.204275218242608 | etot = 0.444199626650087
886  ekin = 0.240043831448889 | epot = 0.204155794991644 | etot = 0.444199626440533
887  ekin = 0.240165248347926 | epot = 0.204034377874136 | etot = 0.444199626222062
888  ekin = 0.240288655319926 | epot = 0.203910970674767 | etot = 0.444199625994693
889  ekin = 0.240414048437756 | epot = 0.203785577320684 | etot = 0.44419962575844
890  ekin = 0.240541423632095 | epot = 0.203658201881224 | etot = 0.444199625513319
891  ekin = 0.240670776691717 | epot = 0.203528848567632 | etot = 0.444199625259349
892  ekin = 0.240802103263781 | epot = 0.203397521732766 | etot = 0.444199624996547
893  ekin = 0.240935398854143 | epot = 0.203264225870788 | etot = 0.444199624724931
894  ekin = 0.241070658827661 | epot = 0.203128965616859 | etot = 0.444199624444519
895  ekin = 0.241207878408525 | epot = 0.202991745746808 | etot = 0.444199624155333
896  ekin = 0.241347052680589 | epot = 0.202852571176804 | etot = 0.444199623857393
897  ekin = 0.24148817658771 | epot = 0.202711446963007 | etot = 0.444199623550717
898  ekin = 0.241631244934104 | epot = 0.202568378301226 | etot = 0.44419962323533
899  ekin = 0.241776252384709 | epot = 0.202423370526542 | etot = 0.444199622911251
900  ekin = 0.241923193465554 | epot = 0.202276429112952 | etot = 0.444199622578506
901  ekin = 0.242072062564143 | epot = 0.202127559672974 | etot = 0.444199622237117
902  ekin = 0.242222853929843 | epot = 0.201976767957263 | etot = 0.444199621887106
903  ekin = 0.242375561674288 | epot = 0.201824059854212 | etot = 0.4441996215285
904  ekin = 0.242530179771788 | epot = 0.201669441389534 | etot = 0.444199621161323
905  ekin = 0.24268670205975 | epot = 0.201512918725851 | etot = 0.444199620785601
906  ekin = 0.242845122239102 | epot = 0.201354498162258 | etot = 0.44419962040136
907  ekin = 0.243005433874741 | epot = 0.201194186133886 | etot = 0.444199620008627
908  ekin = 0.243167630395973 | epot = 0.201031989211458 | etot = 0.444199619607431
909  ekin = 0.243331705096975 | epot = 0.200867914100824 | etot = 0.444199619197798
910  ekin = 0.243497651137261 | epot = 0.200701967642498 | etot = 0.444199618779759
911  ekin = 0.24366546154216 | epot = 0.200534156811181 | etot = 0.444199618353341
912  ekin = 0.243835129203299 | epot = 0.200364488715276 | etot = 0.444199617918575
913  ekin = 0.244006646879102 | epot = 0.20019297059639 | etot = 0.444199617475492
914  ekin = 0.244180007195292 | epot = 0.200019609828831 | etot = 0.444199617024123
915  ekin = 0.244355202645406 | epot = 0.199844413919093 | etot = 0.444199616564499
916  ekin = 0.244532225591318 | epot = 0.199667390505335 | etot = 0.444199616096653
917  ekin = 0.24471106826377 | epot = 0.199488547356847 | etot = 0.444199615620617
918  ekin = 0.244891722762917 | epot = 0.199307892373509 | etot = 0.444199615136426
919  ekin = 0.245074181058874 | epot = 0.199125433585239 | etot = 0.444199614644113
920  ekin = 0.245258434992278 | epot = 0.198941179151434 | etot = 0.444199614143712
921  ekin = 0.245444476274857 | epot = 0.198755137360403 | etot = 0.44419961363526
922  ekin = 0.245632296490005 | epot = 0.198567316628786 | etot = 0.444199613118791
923  ekin = 0.245821887093374 | epot = 0.198377725500968 | etot = 0.444199612594342
924  ekin = 0.246013239413466 | epot = 0.198186372648484 | etot = 0.44419961206195
925  ekin = 0.246206344652238 | epot = 0.197993266869416 | etot = 0.444199611521653
926  ekin = 0.246401193885717 | epot = 0.197798417087772 | etot = 0.444199610973489
927  ekin = 0.246597778064624 | epot = 0.197601832352871 | etot = 0.444199610417495
928  ekin = 0.246796088015001 | epot = 0.197403521838712 | etot = 0.444199609853712
[...]
INDEX, ia, a, ib, b: 7 7 0 8
16960  ekin = 2.20324893128074 | epot = 0.07377742144239 | etot = 2.27702635272313
INDEX, ia, a, ib, b: 0 0 0 3
INDEX, ia, a, ib, b: 1 1 0 2
INDEX, ia, a, ib, b: 1 1 1 3
INDEX, ia, a, ib, b: 2 2 0 4
INDEX, ia, a, ib, b: 3 3 0 5
INDEX, ia, a, ib, b: 3 3 1 4
INDEX, ia, a, ib, b: 3 3 2 7
INDEX, ia, a, ib, b: 4 4 0 7
INDEX, ia, a, ib, b: 4 4 1 8
INDEX, ia, a, ib, b: 5 5 0 6
INDEX, ia, a, ib, b: 6 6 0 7
INDEX, ia, a, ib, b: 6 6 1 8
INDEX, ia, a, ib, b: 7 7 0 8
16961  ekin = 2.2031622435727 | epot = 0.0738641094162739 | etot = 2.27702635298898
INDEX, ia, a, ib, b: 0 0 0 3
INDEX, ia, a, ib, b: 1 1 0 2
INDEX, ia, a, ib, b: 1 1 1 3
INDEX, ia, a, ib, b: 2 2 0 4
INDEX, ia, a, ib, b: 3 3 0 5
INDEX, ia, a, ib, b: 3 3 1 4
INDEX, ia, a, ib, b: 3 3 2 7
INDEX, ia, a, ib, b: 4 4 0 7
INDEX, ia, a, ib, b: 4 4 1 8
INDEX, ia, a, ib, b: 5 5 0 6
INDEX, ia, a, ib, b: 6 6 0 7
INDEX, ia, a, ib, b: 6 6 1 8
INDEX, ia, a, ib, b: 7 7 0 8
16962  ekin = 2.203073668871 | epot = 0.0739526843864393 | etot = 2.27702635325744
INDEX, ia, a, ib, b: 0 0 0 3
INDEX, ia, a, ib, b: 1 1 0 2
INDEX, ia, a, ib, b: 1 1 1 3
INDEX, ia, a, ib, b: 2 2 0 4
INDEX, ia, a, ib, b: 3 3 0 5
INDEX, ia, a, ib, b: 3 3 1 4
INDEX, ia, a, ib, b: 3 3 2 7
INDEX, ia, a, ib, b: 4 4 0 7
INDEX, ia, a, ib, b: 4 4 1 8
INDEX, ia, a, ib, b: 5 5 0 6
INDEX, ia, a, ib, b: 6 6 0 7
INDEX, ia, a, ib, b: 6 6 1 8
INDEX, ia, a, ib, b: 7 7 0 8
16963  ekin = 2.20298321182621 | epot = 0.0740431417023164 | etot = 2.27702635352853
INDEX, ia, a, ib, b: 0 0 0 3
INDEX, ia, a, ib, b: 1 1 0 2
INDEX, ia, a, ib, b: 1 1 1 3
INDEX, ia, a, ib, b: 2 2 0 4
INDEX, ia, a, ib, b: 3 3 0 5
INDEX, ia, a, ib, b: 3 3 1 4
INDEX, ia, a, ib, b: 3 3 2 7
INDEX, ia, a, ib, b: 4 4 0 7
INDEX, ia, a, ib, b: 4 4 1 8
INDEX, ia, a, ib, b: 5 5 0 6
INDEX, ia, a, ib, b: 6 6 0 7
INDEX, ia, a, ib, b: 6 6 1 8
INDEX, ia, a, ib, b: 7 7 0 8
16964  ekin = 2.20289087713316 | epot = 0.0741354766690616 | etot = 2.27702635380222
INDEX, ia, a, ib, b: 0 0 0 3
INDEX, ia, a, ib, b: 1 1 0 2
INDEX, ia, a, ib, b: 1 1 1 3
INDEX, ia, a, ib, b: 2 2 0 4
INDEX, ia, a, ib, b: 3 3 0 5
INDEX, ia, a, ib, b: 3 3 1 4
INDEX, ia, a, ib, b: 3 3 2 7
INDEX, ia, a, ib, b: 4 4 0 7
INDEX, ia, a, ib, b: 4 4 1 8
INDEX, ia, a, ib, b: 5 5 0 6
INDEX, ia, a, ib, b: 6 6 0 7
INDEX, ia, a, ib, b: 6 6 1 8
INDEX, ia, a, ib, b: 7 7 0 8
16965  ekin = 2.20279666953091 | epot = 0.0742296845476316 | etot = 2.27702635407854
INDEX, ia, a, ib, b: 0 0 0 3
INDEX, ia, a, ib, b: 1 1 0 2
INDEX, ia, a, ib, b: 1 1 1 3
INDEX, ia, a, ib, b: 2 2 0 4
INDEX, ia, a, ib, b: 3 3 0 5
INDEX, ia, a, ib, b: 3 3 1 4
INDEX, ia, a, ib, b: 3 3 2 7
INDEX, ia, a, ib, b: 4 4 0 7
INDEX, ia, a, ib, b: 4 4 1 8
INDEX, ia, a, ib, b: 5 5 0 6
INDEX, ia, a, ib, b: 6 6 0 7
INDEX, ia, a, ib, b: 6 6 1 8
INDEX, ia, a, ib, b: 7 7 0 8
16966  ekin = 2.20270059380261 | epot = 0.0743257605548543 | etot = 2.27702635435746
INDEX, ia, a, ib, b: 0 0 0 3
INDEX, ia, a, ib, b: 1 1 0 2
INDEX, ia, a, ib, b: 1 1 1 3
INDEX, ia, a, ib, b: 2 2 0 4
INDEX, ia, a, ib, b: 3 3 0 5
INDEX, ia, a, ib, b: 3 3 1 4
INDEX, ia, a, ib, b: 3 3 2 7
INDEX, ia, a, ib, b: 4 4 0 7
INDEX, ia, a, ib, b: 4 4 1 8
INDEX, ia, a, ib, b: 5 5 0 6
INDEX, ia, a, ib, b: 6 6 0 7
INDEX, ia, a, ib, b: 6 6 1 8
INDEX, ia, a, ib, b: 7 7 0 8
16967  ekin = 2.20260265477549 | epot = 0.0744236998635012 | etot = 2.277026354639
INDEX, ia, a, ib, b: 0 0 0 3
INDEX, ia, a, ib, b: 1 1 0 2
INDEX, ia, a, ib, b: 1 1 1 3
INDEX, ia, a, ib, b: 2 2 0 4
INDEX, ia, a, ib, b: 3 3 0 5
INDEX, ia, a, ib, b: 3 3 1 4
INDEX, ia, a, ib, b: 3 3 2 7
INDEX, ia, a, ib, b: 4 4 0 7
INDEX, ia, a, ib, b: 4 4 1 8
INDEX, ia, a, ib, b: 5 5 0 6
INDEX, ia, a, ib, b: 6 6 0 7
INDEX, ia, a, ib, b: 6 6 1 8
INDEX, ia, a, ib, b: 7 7 0 8
16968  ekin = 2.20250285732077 | epot = 0.0745234976023614 | etot = 2.27702635492313
INDEX, ia, a, ib, b: 0 0 0 3
INDEX, ia, a, ib, b: 1 1 0 2
INDEX, ia, a, ib, b: 1 1 1 3
INDEX, ia, a, ib, b: 2 2 0 4
INDEX, ia, a, ib, b: 3 3 0 5
INDEX, ia, a, ib, b: 3 3 1 4
INDEX, ia, a, ib, b: 3 3 2 7
INDEX, ia, a, ib, b: 4 4 0 7
INDEX, ia, a, ib, b: 4 4 1 8
INDEX, ia, a, ib, b: 5 5 0 6
INDEX, ia, a, ib, b: 6 6 0 7
INDEX, ia, a, ib, b: 6 6 1 8
INDEX, ia, a, ib, b: 7 7 0 8
16969  ekin = 2.20240120635356 | epot = 0.0746251488563169 | etot = 2.27702635520987
INDEX, ia, a, ib, b: 0 0 0 3
INDEX, ia, a, ib, b: 1 1 0 2
INDEX, ia, a, ib, b: 1 1 1 3
INDEX, ia, a, ib, b: 2 2 0 4
INDEX, ia, a, ib, b: 3 3 0 5
INDEX, ia, a, ib, b: 3 3 1 4
INDEX, ia, a, ib, b: 3 3 2 7
INDEX, ia, a, ib, b: 4 4 0 7
INDEX, ia, a, ib, b: 4 4 1 8
INDEX, ia, a, ib, b: 5 5 0 6
INDEX, ia, a, ib, b: 6 6 0 7
INDEX, ia, a, ib, b: 6 6 1 8
INDEX, ia, a, ib, b: 7 7 0 8
16970  ekin = 2.20229770683279 | epot = 0.0747286486664177 | etot = 2.27702635549921
INDEX, ia, a, ib, b: 0 0 0 3
INDEX, ia, a, ib, b: 1 1 0 2
INDEX, ia, a, ib, b: 1 1 1 3
INDEX, ia, a, ib, b: 2 2 0 4
INDEX, ia, a, ib, b: 3 3 0 5
INDEX, ia, a, ib, b: 3 3 1 4
INDEX, ia, a, ib, b: 3 3 2 7
INDEX, ia, a, ib, b: 4 4 0 7
INDEX, ia, a, ib, b: 4 4 1 8
INDEX, ia, a, ib, b: 5 5 0 6
INDEX, ia, a, ib, b: 6 6 0 7
INDEX, ia, a, ib, b: 6 6 1 8
INDEX, ia, a, ib, b: 7 7 0 8
16971  ekin = 2.20219236376119 | epot = 0.0748339920299583 | etot = 2.27702635579115
INDEX, ia, a, ib, b: 0 0 0 3
INDEX, ia, a, ib, b: 1 1 0 2
INDEX, ia, a, ib, b: 1 1 1 3
INDEX, ia, a, ib, b: 2 2 0 4
INDEX, ia, a, ib, b: 3 3 0 5
INDEX, ia, a, ib, b: 3 3 1 4
INDEX, ia, a, ib, b: 3 3 2 7
INDEX, ia, a, ib, b: 4 4 0 7
INDEX, ia, a, ib, b: 4 4 1 8
INDEX, ia, a, ib, b: 5 5 0 6
INDEX, ia, a, ib, b: 6 6 0 7
INDEX, ia, a, ib, b: 6 6 1 8
INDEX, ia, a, ib, b: 7 7 0 8
16972  ekin = 2.20208518218513 | epot = 0.074941173900554 | etot = 2.27702635608568
INDEX, ia, a, ib, b: 0 0 0 3
INDEX, ia, a, ib, b: 1 1 0 2
INDEX, ia, a, ib, b: 1 1 1 3
INDEX, ia, a, ib, b: 2 2 0 4
INDEX, ia, a, ib, b: 3 3 0 5
INDEX, ia, a, ib, b: 3 3 1 4
INDEX, ia, a, ib, b: 3 3 2 7
INDEX, ia, a, ib, b: 4 4 0 7
INDEX, ia, a, ib, b: 4 4 1 8
INDEX, ia, a, ib, b: 5 5 0 6
INDEX, ia, a, ib, b: 6 6 0 7
INDEX, ia, a, ib, b: 6 6 1 8
INDEX, ia, a, ib, b: 7 7 0 8
16973  ekin = 2.20197616719458 | epot = 0.0750501891882202 | etot = 2.2770263563828
INDEX, ia, a, ib, b: 0 0 0 3
INDEX, ia, a, ib, b: 1 1 0 2
INDEX, ia, a, ib, b: 1 1 1 3
INDEX, ia, a, ib, b: 2 2 0 4
INDEX, ia, a, ib, b: 3 3 0 5
INDEX, ia, a, ib, b: 3 3 1 4
INDEX, ia, a, ib, b: 3 3 2 7
INDEX, ia, a, ib, b: 4 4 0 7
INDEX, ia, a, ib, b: 4 4 1 8
INDEX, ia, a, ib, b: 5 5 0 6
INDEX, ia, a, ib, b: 6 6 0 7
INDEX, ia, a, ib, b: 6 6 1 8
INDEX, ia, a, ib, b: 7 7 0 8
16974  ekin = 2.20186532392306 | epot = 0.0751610327594506 | etot = 2.27702635668251
INDEX, ia, a, ib, b: 0 0 0 3
INDEX, ia, a, ib, b: 1 1 0 2
INDEX, ia, a, ib, b: 1 1 1 3
INDEX, ia, a, ib, b: 2 2 0 4
INDEX, ia, a, ib, b: 3 3 0 5
INDEX, ia, a, ib, b: 3 3 1 4
INDEX, ia, a, ib, b: 3 3 2 7
INDEX, ia, a, ib, b: 4 4 0 7
INDEX, ia, a, ib, b: 4 4 1 8
INDEX, ia, a, ib, b: 5 5 0 6
INDEX, ia, a, ib, b: 6 6 0 7
INDEX, ia, a, ib, b: 6 6 1 8
INDEX, ia, a, ib, b: 7 7 0 8
16975  ekin = 2.2017526575475 | epot = 0.0752736994372986 | etot = 2.2770263569848
INDEX, ia, a, ib, b: 0 0 0 3
INDEX, ia, a, ib, b: 1 1 0 2
INDEX, ia, a, ib, b: 1 1 1 3
INDEX, ia, a, ib, b: 2 2 0 4
INDEX, ia, a, ib, b: 3 3 0 5
INDEX, ia, a, ib, b: 3 3 1 4
INDEX, ia, a, ib, b: 3 3 2 7
INDEX, ia, a, ib, b: 4 4 0 7
INDEX, ia, a, ib, b: 4 4 1 8
INDEX, ia, a, ib, b: 5 5 0 6
INDEX, ia, a, ib, b: 6 6 0 7
INDEX, ia, a, ib, b: 6 6 1 8
INDEX, ia, a, ib, b: 7 7 0 8
16976  ekin = 2.20163817328822 | epot = 0.0753881840014574 | etot = 2.27702635728967
INDEX, ia, a, ib, b: 0 0 0 3
INDEX, ia, a, ib, b: 1 1 0 2
INDEX, ia, a, ib, b: 1 1 1 3
INDEX, ia, a, ib, b: 2 2 0 4
INDEX, ia, a, ib, b: 3 3 0 5
INDEX, ia, a, ib, b: 3 3 1 4
INDEX, ia, a, ib, b: 3 3 2 7
INDEX, ia, a, ib, b: 4 4 0 7
INDEX, ia, a, ib, b: 4 4 1 8
INDEX, ia, a, ib, b: 5 5 0 6
INDEX, ia, a, ib, b: 6 6 0 7
INDEX, ia, a, ib, b: 6 6 1 8
INDEX, ia, a, ib, b: 7 7 0 8
16977  ekin = 2.20152187640878 | epot = 0.0755044811883428 | etot = 2.27702635759713
INDEX, ia, a, ib, b: 0 0 0 3
INDEX, ia, a, ib, b: 1 1 0 2
INDEX, ia, a, ib, b: 1 1 1 3
INDEX, ia, a, ib, b: 2 2 0 4
INDEX, ia, a, ib, b: 3 3 0 5
INDEX, ia, a, ib, b: 3 3 1 4
INDEX, ia, a, ib, b: 3 3 2 7
INDEX, ia, a, ib, b: 4 4 0 7
INDEX, ia, a, ib, b: 4 4 1 8
INDEX, ia, a, ib, b: 5 5 0 6
INDEX, ia, a, ib, b: 6 6 0 7
INDEX, ia, a, ib, b: 6 6 1 8
INDEX, ia, a, ib, b: 7 7 0 8
16978  ekin = 2.20140377221598 | epot = 0.0756225856911748 | etot = 2.27702635790715
INDEX, ia, a, ib, b: 0 0 0 3
INDEX, ia, a, ib, b: 1 1 0 2
INDEX, ia, a, ib, b: 1 1 1 3
INDEX, ia, a, ib, b: 2 2 0 4
INDEX, ia, a, ib, b: 3 3 0 5
INDEX, ia, a, ib, b: 3 3 1 4
INDEX, ia, a, ib, b: 3 3 2 7
INDEX, ia, a, ib, b: 4 4 0 7
INDEX, ia, a, ib, b: 4 4 1 8
INDEX, ia, a, ib, b: 5 5 0 6
INDEX, ia, a, ib, b: 6 6 0 7
INDEX, ia, a, ib, b: 6 6 1 8
INDEX, ia, a, ib, b: 7 7 0 8
16979  ekin = 2.20128386605969 | epot = 0.0757424921600625 | etot = 2.27702635821975
INDEX, ia, a, ib, b: 0 0 0 3
INDEX, ia, a, ib, b: 1 1 0 2
INDEX, ia, a, ib, b: 1 1 1 3
INDEX, ia, a, ib, b: 2 2 0 4
INDEX, ia, a, ib, b: 3 3 0 5
INDEX, ia, a, ib, b: 3 3 1 4
INDEX, ia, a, ib, b: 3 3 2 7
INDEX, ia, a, ib, b: 4 4 0 7
INDEX, ia, a, ib, b: 4 4 1 8
INDEX, ia, a, ib, b: 5 5 0 6
INDEX, ia, a, ib, b: 6 6 0 7
INDEX, ia, a, ib, b: 6 6 1 8
INDEX, ia, a, ib, b: 7 7 0 8
16980  ekin = 2.20116216333283 | epot = 0.0758641952020903 | etot = 2.27702635853492
INDEX, ia, a, ib, b: 0 0 0 3
INDEX, ia, a, ib, b: 1 1 0 2
INDEX, ia, a, ib, b: 1 1 1 3
INDEX, ia, a, ib, b: 2 2 0 4
INDEX, ia, a, ib, b: 3 3 0 5
INDEX, ia, a, ib, b: 3 3 1 4
INDEX, ia, a, ib, b: 3 3 2 7
INDEX, ia, a, ib, b: 4 4 0 7
INDEX, ia, a, ib, b: 4 4 1 8
INDEX, ia, a, ib, b: 5 5 0 6
INDEX, ia, a, ib, b: 6 6 0 7
INDEX, ia, a, ib, b: 6 6 1 8
INDEX, ia, a, ib, b: 7 7 0 8
16981  ekin = 2.20103866947124 | epot = 0.0759876893814024 | etot = 2.27702635885265
INDEX, ia, a, ib, b: 0 0 0 3
INDEX, ia, a, ib, b: 1 1 0 2
INDEX, ia, a, ib, b: 1 1 1 3
INDEX, ia, a, ib, b: 2 2 0 4
INDEX, ia, a, ib, b: 3 3 0 5
INDEX, ia, a, ib, b: 3 3 1 4
INDEX, ia, a, ib, b: 3 3 2 7
INDEX, ia, a, ib, b: 4 4 0 7
INDEX, ia, a, ib, b: 4 4 1 8
INDEX, ia, a, ib, b: 5 5 0 6
INDEX, ia, a, ib, b: 6 6 0 7
INDEX, ia, a, ib, b: 6 6 1 8
INDEX, ia, a, ib, b: 7 7 0 8
16982  ekin = 2.20091338995365 | epot = 0.0761129692192908 | etot = 2.27702635917294
INDEX, ia, a, ib, b: 0 0 0 3
INDEX, ia, a, ib, b: 1 1 0 2
INDEX, ia, a, ib, b: 1 1 1 3
INDEX, ia, a, ib, b: 2 2 0 4
INDEX, ia, a, ib, b: 3 3 0 5
INDEX, ia, a, ib, b: 3 3 1 4
INDEX, ia, a, ib, b: 3 3 2 7
INDEX, ia, a, ib, b: 4 4 0 7
INDEX, ia, a, ib, b: 4 4 1 8
INDEX, ia, a, ib, b: 5 5 0 6
INDEX, ia, a, ib, b: 6 6 0 7
INDEX, ia, a, ib, b: 6 6 1 8
INDEX, ia, a, ib, b: 7 7 0 8
16983  ekin = 2.2007863303015 | epot = 0.0762400291942829 | etot = 2.27702635949578
INDEX, ia, a, ib, b: 0 0 0 3
INDEX, ia, a, ib, b: 1 1 0 2
INDEX, ia, a, ib, b: 1 1 1 3
INDEX, ia, a, ib, b: 2 2 0 4
INDEX, ia, a, ib, b: 3 3 0 5
INDEX, ia, a, ib, b: 3 3 1 4
INDEX, ia, a, ib, b: 3 3 2 7
INDEX, ia, a, ib, b: 4 4 0 7
INDEX, ia, a, ib, b: 4 4 1 8
INDEX, ia, a, ib, b: 5 5 0 6
INDEX, ia, a, ib, b: 6 6 0 7
INDEX, ia, a, ib, b: 6 6 1 8
INDEX, ia, a, ib, b: 7 7 0 8
16984  ekin = 2.20065749607895 | epot = 0.0763688637422328 | etot = 2.27702635982119
INDEX, ia, a, ib, b: 0 0 0 3
INDEX, ia, a, ib, b: 1 1 0 2
INDEX, ia, a, ib, b: 1 1 1 3
INDEX, ia, a, ib, b: 2 2 0 4
INDEX, ia, a, ib, b: 3 3 0 5
INDEX, ia, a, ib, b: 3 3 1 4
INDEX, ia, a, ib, b: 3 3 2 7
INDEX, ia, a, ib, b: 4 4 0 7
INDEX, ia, a, ib, b: 4 4 1 8
INDEX, ia, a, ib, b: 5 5 0 6
INDEX, ia, a, ib, b: 6 6 0 7
INDEX, ia, a, ib, b: 6 6 1 8
INDEX, ia, a, ib, b: 7 7 0 8
16985  ekin = 2.20052689289273 | epot = 0.0764994672564101 | etot = 2.27702636014914
INDEX, ia, a, ib, b: 0 0 0 3
INDEX, ia, a, ib, b: 1 1 0 2
INDEX, ia, a, ib, b: 1 1 1 3
INDEX, ia, a, ib, b: 2 2 0 4
INDEX, ia, a, ib, b: 3 3 0 5
INDEX, ia, a, ib, b: 3 3 1 4
INDEX, ia, a, ib, b: 3 3 2 7
INDEX, ia, a, ib, b: 4 4 0 7
INDEX, ia, a, ib, b: 4 4 1 8
INDEX, ia, a, ib, b: 5 5 0 6
INDEX, ia, a, ib, b: 6 6 0 7
INDEX, ia, a, ib, b: 6 6 1 8
INDEX, ia, a, ib, b: 7 7 0 8
16986  ekin = 2.20039452639204 | epot = 0.0766318340875915 | etot = 2.27702636047964
INDEX, ia, a, ib, b: 0 0 0 3
INDEX, ia, a, ib, b: 1 1 0 2
INDEX, ia, a, ib, b: 1 1 1 3
INDEX, ia, a, ib, b: 2 2 0 4
INDEX, ia, a, ib, b: 3 3 0 5
INDEX, ia, a, ib, b: 3 3 1 4
INDEX, ia, a, ib, b: 3 3 2 7
INDEX, ia, a, ib, b: 4 4 0 7
INDEX, ia, a, ib, b: 4 4 1 8
INDEX, ia, a, ib, b: 5 5 0 6
INDEX, ia, a, ib, b: 6 6 0 7
INDEX, ia, a, ib, b: 6 6 1 8
INDEX, ia, a, ib, b: 7 7 0 8
16987  ekin = 2.20026040226852 | epot = 0.0767659585441541 | etot = 2.27702636081268
INDEX, ia, a, ib, b: 0 0 0 3
INDEX, ia, a, ib, b: 1 1 0 2
INDEX, ia, a, ib, b: 1 1 1 3
INDEX, ia, a, ib, b: 2 2 0 4
INDEX, ia, a, ib, b: 3 3 0 5
INDEX, ia, a, ib, b: 3 3 1 4
INDEX, ia, a, ib, b: 3 3 2 7
INDEX, ia, a, ib, b: 4 4 0 7
INDEX, ia, a, ib, b: 4 4 1 8
INDEX, ia, a, ib, b: 5 5 0 6
INDEX, ia, a, ib, b: 6 6 0 7
INDEX, ia, a, ib, b: 6 6 1 8
INDEX, ia, a, ib, b: 7 7 0 8
16988  ekin = 2.20012452625608 | epot = 0.0769018348921698 | etot = 2.27702636114825
INDEX, ia, a, ib, b: 0 0 0 3
INDEX, ia, a, ib, b: 1 1 0 2
INDEX, ia, a, ib, b: 1 1 1 3
INDEX, ia, a, ib, b: 2 2 0 4
INDEX, ia, a, ib, b: 3 3 0 5
INDEX, ia, a, ib, b: 3 3 1 4
INDEX, ia, a, ib, b: 3 3 2 7
INDEX, ia, a, ib, b: 4 4 0 7
INDEX, ia, a, ib, b: 4 4 1 8
INDEX, ia, a, ib, b: 5 5 0 6
INDEX, ia, a, ib, b: 6 6 0 7
INDEX, ia, a, ib, b: 6 6 1 8
INDEX, ia, a, ib, b: 7 7 0 8
16989  ekin = 2.19998690413086 | epot = 0.0770394573555 | etot = 2.27702636148636
INDEX, ia, a, ib, b: 0 0 0 3
INDEX, ia, a, ib, b: 1 1 0 2
INDEX, ia, a, ib, b: 1 1 1 3
INDEX, ia, a, ib, b: 2 2 0 4
INDEX, ia, a, ib, b: 3 3 0 5
INDEX, ia, a, ib, b: 3 3 1 4
INDEX, ia, a, ib, b: 3 3 2 7
INDEX, ia, a, ib, b: 4 4 0 7
INDEX, ia, a, ib, b: 4 4 1 8
INDEX, ia, a, ib, b: 5 5 0 6
INDEX, ia, a, ib, b: 6 6 0 7
INDEX, ia, a, ib, b: 6 6 1 8
INDEX, ia, a, ib, b: 7 7 0 8
16990  ekin = 2.19984754171111 | epot = 0.0771788201158921 | etot = 2.27702636182701
INDEX, ia, a, ib, b: 0 0 0 3
INDEX, ia, a, ib, b: 1 1 0 2
INDEX, ia, a, ib, b: 1 1 1 3
INDEX, ia, a, ib, b: 2 2 0 4
INDEX, ia, a, ib, b: 3 3 0 5
INDEX, ia, a, ib, b: 3 3 1 4
INDEX, ia, a, ib, b: 3 3 2 7
INDEX, ia, a, ib, b: 4 4 0 7
INDEX, ia, a, ib, b: 4 4 1 8
INDEX, ia, a, ib, b: 5 5 0 6
INDEX, ia, a, ib, b: 6 6 0 7
INDEX, ia, a, ib, b: 6 6 1 8
INDEX, ia, a, ib, b: 7 7 0 8
16991  ekin = 2.1997064448571 | epot = 0.0773199173130772 | etot = 2.27702636217017
INDEX, ia, a, ib, b: 0 0 0 3
INDEX, ia, a, ib, b: 1 1 0 2
INDEX, ia, a, ib, b: 1 1 1 3
INDEX, ia, a, ib, b: 2 2 0 4
INDEX, ia, a, ib, b: 3 3 0 5
INDEX, ia, a, ib, b: 3 3 1 4
INDEX, ia, a, ib, b: 3 3 2 7
INDEX, ia, a, ib, b: 4 4 0 7
INDEX, ia, a, ib, b: 4 4 1 8
INDEX, ia, a, ib, b: 5 5 0 6
INDEX, ia, a, ib, b: 6 6 0 7
INDEX, ia, a, ib, b: 6 6 1 8
INDEX, ia, a, ib, b: 7 7 0 8
16992  ekin = 2.19956361947099 | epot = 0.0774627430448677 | etot = 2.27702636251586
INDEX, ia, a, ib, b: 0 0 0 3
INDEX, ia, a, ib, b: 1 1 0 2
INDEX, ia, a, ib, b: 1 1 1 3
INDEX, ia, a, ib, b: 2 2 0 4
INDEX, ia, a, ib, b: 3 3 0 5
INDEX, ia, a, ib, b: 3 3 1 4
INDEX, ia, a, ib, b: 3 3 2 7
INDEX, ia, a, ib, b: 4 4 0 7
INDEX, ia, a, ib, b: 4 4 1 8
INDEX, ia, a, ib, b: 5 5 0 6
INDEX, ia, a, ib, b: 6 6 0 7
INDEX, ia, a, ib, b: 6 6 1 8
INDEX, ia, a, ib, b: 7 7 0 8
16993  ekin = 2.19941907149681 | epot = 0.0776072913672598 | etot = 2.27702636286407
INDEX, ia, a, ib, b: 0 0 0 3
INDEX, ia, a, ib, b: 1 1 0 2
INDEX, ia, a, ib, b: 1 1 1 3
INDEX, ia, a, ib, b: 2 2 0 4
INDEX, ia, a, ib, b: 3 3 0 5
INDEX, ia, a, ib, b: 3 3 1 4
INDEX, ia, a, ib, b: 3 3 2 7
INDEX, ia, a, ib, b: 4 4 0 7
INDEX, ia, a, ib, b: 4 4 1 8
INDEX, ia, a, ib, b: 5 5 0 6
INDEX, ia, a, ib, b: 6 6 0 7
INDEX, ia, a, ib, b: 6 6 1 8
INDEX, ia, a, ib, b: 7 7 0 8
16994  ekin = 2.19927280692025 | epot = 0.0777535562945324 | etot = 2.27702636321479
INDEX, ia, a, ib, b: 0 0 0 3
INDEX, ia, a, ib, b: 1 1 0 2
INDEX, ia, a, ib, b: 1 1 1 3
INDEX, ia, a, ib, b: 2 2 0 4
INDEX, ia, a, ib, b: 3 3 0 5
INDEX, ia, a, ib, b: 3 3 1 4
INDEX, ia, a, ib, b: 3 3 2 7
INDEX, ia, a, ib, b: 4 4 0 7
INDEX, ia, a, ib, b: 4 4 1 8
INDEX, ia, a, ib, b: 5 5 0 6
INDEX, ia, a, ib, b: 6 6 0 7
INDEX, ia, a, ib, b: 6 6 1 8
INDEX, ia, a, ib, b: 7 7 0 8
16995  ekin = 2.19912483176866 | epot = 0.0779015317993513 | etot = 2.27702636356801
INDEX, ia, a, ib, b: 0 0 0 3
INDEX, ia, a, ib, b: 1 1 0 2
INDEX, ia, a, ib, b: 1 1 1 3
INDEX, ia, a, ib, b: 2 2 0 4
INDEX, ia, a, ib, b: 3 3 0 5
INDEX, ia, a, ib, b: 3 3 1 4
INDEX, ia, a, ib, b: 3 3 2 7
INDEX, ia, a, ib, b: 4 4 0 7
INDEX, ia, a, ib, b: 4 4 1 8
INDEX, ia, a, ib, b: 5 5 0 6
INDEX, ia, a, ib, b: 6 6 0 7
INDEX, ia, a, ib, b: 6 6 1 8
INDEX, ia, a, ib, b: 7 7 0 8
16996  ekin = 2.19897515211087 | epot = 0.0780512118128723 | etot = 2.27702636392374
INDEX, ia, a, ib, b: 0 0 0 3
INDEX, ia, a, ib, b: 1 1 0 2
INDEX, ia, a, ib, b: 1 1 1 3
INDEX, ia, a, ib, b: 2 2 0 4
INDEX, ia, a, ib, b: 3 3 0 5
INDEX, ia, a, ib, b: 3 3 1 4
INDEX, ia, a, ib, b: 3 3 2 7
INDEX, ia, a, ib, b: 4 4 0 7
INDEX, ia, a, ib, b: 4 4 1 8
INDEX, ia, a, ib, b: 5 5 0 6
INDEX, ia, a, ib, b: 6 6 0 7
INDEX, ia, a, ib, b: 6 6 1 8
INDEX, ia, a, ib, b: 7 7 0 8
16997  ekin = 2.19882377405713 | epot = 0.0782025902248468 | etot = 2.27702636428197
INDEX, ia, a, ib, b: 0 0 0 3
INDEX, ia, a, ib, b: 1 1 0 2
INDEX, ia, a, ib, b: 1 1 1 3
INDEX, ia, a, ib, b: 2 2 0 4
INDEX, ia, a, ib, b: 3 3 0 5
INDEX, ia, a, ib, b: 3 3 1 4
INDEX, ia, a, ib, b: 3 3 2 7
INDEX, ia, a, ib, b: 4 4 0 7
INDEX, ia, a, ib, b: 4 4 1 8
INDEX, ia, a, ib, b: 5 5 0 6
INDEX, ia, a, ib, b: 6 6 0 7
INDEX, ia, a, ib, b: 6 6 1 8
INDEX, ia, a, ib, b: 7 7 0 8
16998  ekin = 2.19867070375897 | epot = 0.0783556608837286 | etot = 2.2770263646427
INDEX, ia, a, ib, b: 0 0 0 3
INDEX, ia, a, ib, b: 1 1 0 2
INDEX, ia, a, ib, b: 1 1 1 3
INDEX, ia, a, ib, b: 2 2 0 4
INDEX, ia, a, ib, b: 3 3 0 5
INDEX, ia, a, ib, b: 3 3 1 4
INDEX, ia, a, ib, b: 3 3 2 7
INDEX, ia, a, ib, b: 4 4 0 7
INDEX, ia, a, ib, b: 4 4 1 8
INDEX, ia, a, ib, b: 5 5 0 6
INDEX, ia, a, ib, b: 6 6 0 7
INDEX, ia, a, ib, b: 6 6 1 8
INDEX, ia, a, ib, b: 7 7 0 8
16999  ekin = 2.19851594740913 | epot = 0.078510417596781 | etot = 2.27702636500591
INDEX, ia, a, ib, b: 0 0 0 3
INDEX, ia, a, ib, b: 1 1 0 2
INDEX, ia, a, ib, b: 1 1 1 3
INDEX, ia, a, ib, b: 2 2 0 4
INDEX, ia, a, ib, b: 3 3 0 5
INDEX, ia, a, ib, b: 3 3 1 4
INDEX, ia, a, ib, b: 3 3 2 7
INDEX, ia, a, ib, b: 4 4 0 7
INDEX, ia, a, ib, b: 4 4 1 8
INDEX, ia, a, ib, b: 5 5 0 6
INDEX, ia, a, ib, b: 6 6 0 7
INDEX, ia, a, ib, b: 6 6 1 8
INDEX, ia, a, ib, b: 7 7 0 8
17000  ekin = 2.19835951124142 | epot = 0.0786668541301866 | etot = 2.27702636537161
     17000   0.16284145     0              0.0078666854   0.22770264     0.00020783775
Loop time of 0.398576 on 1 procs for 17000 steps with 10 atoms

Performance: 3685119.301 tau/day, 42651.844 timesteps/s, 426.518 katom-step/s
75.1% CPU use with 1 MPI tasks x 1 OpenMP threads

MPI task timing breakdown:
Section |  min time  |  avg time  |  max time  |%varavg| %total
---------------------------------------------------------------
Pair    | 0.18192    | 0.18192    | 0.18192    |   0.0 | 45.64
Bond    | 0.037112   | 0.037112   | 0.037112   |   0.0 |  9.31
Neigh   | 0.00028664 | 0.00028664 | 0.00028664 |   0.0 |  0.07
Comm    | 0.01329    | 0.01329    | 0.01329    |   0.0 |  3.33
Output  | 0.00017177 | 0.00017177 | 0.00017177 |   0.0 |  0.04
Modify  | 0.13728    | 0.13728    | 0.13728    |   0.0 | 34.44
Other   |            | 0.02851    |            |       |  7.15

Nlocal:             10 ave          10 max          10 min
Histogram: 1 0 0 0 0 0 0 0 0 0
Nghost:             10 ave          10 max          10 min
Histogram: 1 0 0 0 0 0 0 0 0 0
Neighs:             13 ave          13 max          13 min
Histogram: 1 0 0 0 0 0 0 0 0 0

Total # of neighbors = 13
Ave neighs/atom = 1.3
Ave special neighs/atom = 4.8
Neighbor list builds = 10
Dangerous builds = 0
System init for write_data ...
Generated 0 of 0 mixed pair_coeff terms from geometric mixing rule
Total wall time: 0:00:00
