LAMMPS data file via write_data, version 29 Aug 2024, timestep = 20000, units = lj

100 atoms
1 atom types
100 ellipsoids

0 5.503212081491045 xlo xhi
0 5.503212081491045 ylo yhi
0 4.402569665192836 zlo zhi

Atoms # ellipsoid

5 1 1 14.92077591486519 1.2131987230659 0.004192693875179602 0.31437882817446283 0 0 0
11 1 1 14.92077591486519 2.0954987439280015 0.7862760777529523 0.21258163321168996 0 0 0
2 1 1 14.92077591486519 0.23924060205918932 0.19881972872438458 1.037280188860447 0 0 0
10 1 1 14.92077591486519 2.484142279129188 0.10017277511892217 1.1544159015917959 0 0 0
8 1 1 14.92077591486519 1.2303705341667617 0.977435933052956 0.8383660217548196 0 0 0
12 1 1 14.92077591486519 2.3529761305163754 1.1765609974363753 1.2784065606987074 0 0 0
53 1 1 14.92077591486519 0.2791094264517481 1.155457090909476 1.7041342117926135 0 0 0
57 1 1 14.92077591486519 1.5641080813057797 0.9480292353776337 1.991724014069537 0 0 0
59 1 1 14.92077591486519 2.0124562517926075 0.21608508541518812 2.6720003095956826 0 0 0
58 1 1 14.92077591486519 0.5789095399759536 0.9791167314455002 2.773086146483063 0 0 0
61 1 1 14.92077591486519 2.2668643026817756 1.6540093575962016 2.4424290302571863 0 0 0
62 1 1 14.92077591486519 1.5918155133443679 1.1768750139274746 3.5442405153757286 0 0 0
66 1 1 14.92077591486519 2.696290245601414 1.1581789061291945 3.289705010716444 0 0 0
1 1 1 14.92077591486519 0.31637844504318263 0.4685706481437174 4.374661383992105 0 0 -1
60 1 1 14.92077591486519 1.7697972677712912 0.02950704221570052 3.8058471265412765 0 0 0
7 1 1 14.92077591486519 0.7173335140697549 1.5062700403615952 4.279650560699095 0 0 -1
21 1 1 14.92077591486519 0.09626195287075426 2.3960744920182684 0.13985562115771863 0 0 0
23 1 1 14.92077591486519 1.2995959392728493 2.2107536813902495 0.5497840085459521 0 0 0
31 1 1 14.92077591486519 0.13112244970274714 3.4143049932735745 0.4797599905491503 0 0 0
35 1 1 14.92077591486519 1.197741131423869 3.5222144090863554 0.17435978765859245 0 0 0
26 1 1 14.92077591486519 2.431759826467066 2.2066153268053874 0.8706044492362894 0 0 0
36 1 1 14.92077591486519 1.422741038317459 3.0822335073752027 1.2094313380637238 0 0 0
40 1 1 14.92077591486519 2.5439358639110172 3.270446134417609 0.8508414417777573 0 0 0
24 1 1 14.92077591486519 1.1146266062146037 1.9328686251366083 1.631509735334577 0 0 0
75 1 1 14.92077591486519 1.9595856283286255 2.74824184484712 2.1584297524580673 0 0 0
32 1 1 14.92077591486519 0.061287103489233226 3.3018638888725564 1.6007542187708779 0 0 0
73 1 1 14.92077591486519 1.1470330205649262 1.8836126272582026 2.7111296466169907 0 0 0
85 1 1 14.92077591486519 0.808887520045903 2.892061812300724 2.2612712207012295 0 0 0
76 1 1 14.92077591486519 2.1011087969437305 2.473377669645054 3.2044239323293233 0 0 0
86 1 1 14.92077591486519 1.1833820356637634 3.5051963930020484 3.1346773190915616 0 0 0
90 1 1 14.92077591486519 2.313645154806177 3.5894023477087225 3.0457573774346067 0 0 0
74 1 1 14.92077591486519 1.0446081535914917 2.5988712457722065 3.923474540308138 0 0 0
25 1 1 14.92077591486519 2.2824098771145294 1.928868474049781 4.1180714439631 0 0 -1
39 1 1 14.92077591486519 2.2515634791396533 3.067039553835163 4.149233855710843 0 0 -1
9 1 1 14.92077591486519 2.4948601342705543 5.202193566796582 0.180214285014563 0 -1 0
38 1 1 14.92077591486519 0.9823008712290707 4.132296033148957 1.2039251279065952 0 0 0
42 1 1 14.92077591486519 2.14095978306746 4.482147009078684 0.9994121369159477 0 0 0
6 1 1 14.92077591486519 1.2588341408387023 5.173594076625963 1.3653633188306376 0 -1 0
89 1 1 14.92077591486519 2.5034950208506532 3.6718489264386203 1.880729977240637 0 0 0
91 1 1 14.92077591486519 2.0328882951536578 4.6772382505365275 2.1056446300748854 0 0 0
87 1 1 14.92077591486519 0.901124688584069 4.1624363229458 2.2620261397577712 0 0 0
55 1 1 14.92077591486519 0.8754180577114333 5.333558579978757 2.338930638384234 0 -1 0
88 1 1 14.92077591486519 1.3351053000258015 4.563226247172883 3.2021370667030102 0 0 0
84 1 1 14.92077591486519 0.20128018775004422 4.643052611986152 2.9734923462845395 0 0 0
56 1 1 14.92077591486519 0.7203953312752687 5.464081596133307 3.5007250667942817 0 -1 0
92 1 1 14.92077591486519 2.4229278076871736 4.739672399654562 3.157563935114869 0 0 0
82 1 1 14.92077591486519 0.3807599294191752 3.6974524492354397 3.861032692282676 0 0 0
41 1 1 14.92077591486519 2.0337129441594493 4.22977890842394 4.294011115589694 0 0 -1
37 1 1 14.92077591486519 0.8249004479873894 4.625953209651048 4.170109539139246 0 0 -1
13 1 1 14.92077591486519 3.5025528135612833 0.244843474193833 0.08955866469924595 0 0 0
17 1 1 14.92077591486519 4.823538071954105 0.09694239928633538 0.12226866565683159 0 0 0
15 1 1 14.92077591486519 3.2252383590712084 1.346375648264484 0.14737794971477766 0 0 0
4 1 1 14.92077591486519 5.377033104196046 1.360796763427185 0.5688338620995064 -1 0 0
16 1 1 14.92077591486519 3.4184385415214176 0.8691775341458547 1.2545393791224553 0 0 0
20 1 1 14.92077591486519 4.711720815630806 0.6475547198163507 1.1044810939236325 0 0 0
69 1 1 14.92077591486519 4.2714924599948665 0.4874963506078664 2.1531732146809235 0 0 0
79 1 1 14.92077591486519 4.2611421573269315 1.569944852867212 1.8809502158604843 0 0 0
51 1 1 14.92077591486519 5.406106292725406 0.2407556218866452 2.281985483826585 -1 0 0
65 1 1 14.92077591486519 3.3563153225083866 1.1243316855822432 2.4152042949023307 0 0 0
54 1 1 14.92077591486519 4.9740260132267 1.2167540941251105 2.5904391434158285 -1 0 0
64 1 1 14.92077591486519 2.9376542645352512 0.14954710320559947 3.5239654048432345 0 0 0
70 1 1 14.92077591486519 3.8564995516687732 0.8600787758599636 3.3963431384622904 0 0 0
52 1 1 14.92077591486519 5.16698100862851 0.20162191225220907 3.4673731325864656 -1 0 0
3 1 1 14.92077591486519 5.360177165859257 1.4186536030086252 3.6128576661477934 -1 0 -1
19 1 1 14.92077591486519 4.368924978677771 1.146056292443944 4.325436260133049 0 0 -1
28 1 1 14.92077591486519 3.5114043110811615 2.4586910469226506 0.6700783579464059 0 0 0
43 1 1 14.92077591486519 3.6497692016507925 3.468169213810196 0.4219291887856697 0 0 0
30 1 1 14.92077591486519 4.442314442304228 1.9080125758034125 0.8637863018902447 0 0 0
22 1 1 14.92077591486519 5.463654669238855 2.2565500532643163 1.226254282041372 -1 0 0
48 1 1 14.92077591486519 4.659010896312486 2.957896561369879 0.889353330469245 0 0 0
77 1 1 14.92077591486519 3.229447054393072 2.175654927482324 1.794715946163065 0 0 0
97 1 1 14.92077591486519 4.434370379235818 2.66422044899975 1.8840444463370982 0 0 0
44 1 1 14.92077591486519 3.5152752077959364 3.226405449654242 1.5199989312020818 0 0 0
78 1 1 14.92077591486519 3.188032883131974 2.146612729940546 2.8805338628386292 0 0 0
71 1 1 14.92077591486519 5.468589420256594 2.1979998045642075 2.3663068547984727 -1 0 0
93 1 1 14.92077591486519 3.32042608990524 3.2310552288630037 2.6354792401555915 0 0 0
98 1 1 14.92077591486519 4.371944773697491 3.0252280989426446 2.9112359987807257 0 0 0
80 1 1 14.92077591486519 4.29406662717883 1.9386964396079092 3.1320597286828527 0 0 0
72 1 1 14.92077591486519 5.473796748624494 2.5208139565960006 3.443191053868059 -1 0 0
81 1 1 14.92077591486519 5.356966723631548 3.4914323101926907 2.8757717180357862 -1 0 0
27 1 1 14.92077591486519 3.4435717913106036 2.2241201786474565 3.910303449754325 0 0 -1
29 1 1 14.92077591486519 4.52410845596089 2.513317070500363 4.001428757342555 0 0 -1
94 1 1 14.92077591486519 3.6635634776821795 3.2896556298985087 3.695338341225879 0 0 0
47 1 1 14.92077591486519 4.648806607051965 3.60785892505371 4.399237982694782 0 0 -1
46 1 1 14.92077591486519 3.2032859920046475 4.4894274103600145 0.7262056021871256 0 0 0
34 1 1 14.92077591486519 5.333834618290725 4.567236103220563 0.6569237828436906 -1 0 0
49 1 1 14.92077591486519 4.159369177277765 4.7077786326057485 0.18119229648181648 0 0 0
50 1 1 14.92077591486519 4.394423600733621 4.0276629313251195 1.113485962896989 0 0 0
14 1 1 14.92077591486519 3.8732208399118973 5.227124623469768 1.2293146505693626 0 -1 0
95 1 1 14.92077591486519 3.276707006585561 4.4688065648587525 1.9268979527883616 0 0 0
83 1 1 14.92077591486519 5.184480424843447 4.283654547102431 2.0478153892338 -1 0 0
18 1 1 14.92077591486519 4.9214187814335135 5.145268833372063 1.5257997050507328 0 -1 0
99 1 1 14.92077591486519 4.174206059698232 3.8573837997871085 2.1964520831833223 0 0 0
63 1 1 14.92077591486519 3.283953147061141 5.4634324088184965 2.483907228704888 0 -1 0
67 1 1 14.92077591486519 4.534480114375186 4.957039309144892 2.6161671563705493 0 -1 0
96 1 1 14.92077591486519 3.505383796694175 4.521974916949993 3.014133601788876 0 0 0
100 1 1 14.92077591486519 4.452435878920044 4.075469472782147 3.2475626633138988 0 0 0
68 1 1 14.92077591486519 4.134566321231252 5.313116175650457 3.6385810654814468 0 -1 0
45 1 1 14.92077591486519 3.0714971735635617 4.198775295996889 3.955307218701639 0 0 -1
33 1 1 14.92077591486519 5.078056504599274 4.711784914448588 3.892591250000056 -1 0 -1

Velocities

5 0.030010007811210944 -0.22722849963464242 0.28860194500689085 0 0 0
11 -0.2812044198116498 0.43796761948645585 -0.2520509308060306 0 0 0
2 -0.26285233491385324 0.3449268823640194 -0.09584683758766897 0 0 0
10 -0.18796238757433573 -0.21850129881492203 -0.24219459277799754 0 0 0
8 0.07507913786579898 0.4096066043988883 -0.08041176537288235 0 0 0
12 0.28886040546078223 0.23651049846068475 0.27962376054819826 0 0 0
53 0.11504522315659224 0.4897208129255346 0.3836005564735744 0 0 0
57 -0.4078301566457112 0.11798659986044568 0.2269223941583182 0 0 0
59 -0.351792258365154 0.2879263624253028 -0.5297474866710001 0 0 0
58 0.0942882731512628 -0.021696189972042014 -0.2645057746751181 0 0 0
61 -0.11109807344860115 -0.030392600785674802 0.2564312202226055 0 0 0
62 -0.11786777901805498 -0.40247764950931253 -0.04359428558789814 0 0 0
66 -0.0216436690752269 0.13448320138201403 0.6298531764532528 0 0 0
1 0.07632965629056661 -0.4627612066960387 -0.035922488271619576 0 0 0
60 -0.24124126319694947 -0.8797483905878017 -0.4211753377197704 0 0 0
7 -0.4719357909042921 0.8197640765531847 0.37577946912154947 0 0 0
21 0.24017101726541484 -0.1647695890887008 -0.18844678872969686 0 0 0
23 -0.11039918087880661 -0.35887157872841735 0.5402833555822045 0 0 0
31 -0.06432199616230058 0.2811578561731256 0.5420683211799059 0 0 0
35 0.00247154675407544 -0.26230530873862784 0.5260245172730729 0 0 0
26 -0.33982705965561777 0.04602905923226967 -0.14375856988640795 0 0 0
36 -0.2616102107596323 0.3268558626845262 -0.6846030809222989 0 0 0
40 -0.037425031627414014 -0.363945726468121 0.11750286826338731 0 0 0
24 0.24783033404077556 -0.26641984170983585 0.33948888803522287 0 0 0
75 -0.09151475223447317 0.36660065086728555 -0.28038513934902937 0 0 0
32 -0.20613193364549892 0.154189606874144 -0.09132388413377444 0 0 0
73 -0.405478331274394 0.4109616218104871 0.1763386033255906 0 0 0
85 -0.07532000075491825 0.2940931535090902 -0.44056630565033766 0 0 0
76 0.07123034180440584 -0.07503228202510769 -0.0011403494582197242 0 0 0
86 0.2640933807049714 -0.003549350784392874 0.26388363823224653 0 0 0
90 0.6895940259480786 -0.6931937118922774 -0.4569022158770577 0 0 0
74 0.056752281437240024 0.043049018751767545 -0.08414902888459364 0 0 0
25 0.06501030800786467 0.19795052188659357 0.21657601556376585 0 0 0
39 -0.02778367361082404 0.12995946310368206 0.356693664403823 0 0 0
9 0.30082821803268 -0.06388575826582815 -0.6169718742108733 0 0 0
38 0.3422576287760861 0.33598835042145486 -0.1231732759170439 0 0 0
42 0.20625175720979583 -0.0016394949027789252 0.08771846776327148 0 0 0
6 0.05740680574190487 0.03507429844392283 -0.3823120631264712 0 0 0
89 0.18794016214095272 0.017618886448434054 -0.618153094212858 0 0 0
91 -0.03261698992836392 -0.1450805383560724 -0.018305440568717416 0 0 0
87 0.436169422521839 0.4358080347383155 0.5633992144168036 0 0 0
55 -0.04156183688042338 0.2914128550195533 -0.12672683391254577 0 0 0
88 0.03699666983532048 0.17083863980228783 -0.6696935418675004 0 0 0
84 -0.0990184907049166 -0.27043164686742477 0.4015222503996977 0 0 0
56 -0.3048589877756995 -0.06323771299699109 -0.583834437590648 0 0 0
92 -0.276986013809328 0.19895740418015556 -0.07785408953041484 0 0 0
82 0.06066445883819319 -0.6379304522994903 -0.05875423632486214 0 0 0
41 -0.0012407929532720738 0.025148853656173826 0.15188472175187287 0 0 0
37 0.33851921822303 0.34489574392505273 0.26027499749426647 0 0 0
13 -0.15627014002073464 0.22744777445489436 0.4615166324694047 0 0 0
17 -0.2472641741982583 0.33146542037835325 0.4261042183100548 0 0 0
15 0.06829626102923263 -0.033971260036539185 0.4936575472511818 0 0 0
4 -0.17133924973152911 -0.3982229556226569 0.49731400152111155 0 0 0
16 0.018768242709358104 -0.1618398894650936 -0.13781461288794125 0 0 0
20 0.10216202471959583 -0.06466483870588352 0.26934419127013126 0 0 0
69 0.007225321756216154 0.3938693333966029 0.33175612469908644 0 0 0
79 0.11519090125264562 -0.5169674185644845 0.011100811259179713 0 0 0
51 -0.10092522362744563 0.16343528967716325 0.07988407222022072 0 0 0
65 -0.3529746108179254 -0.27373086334871977 -0.02994083184272029 0 0 0
54 0.17020763301363737 -0.5700972070277154 0.12547134531499007 0 0 0
64 -0.09123049319523183 0.4317032240313867 -0.13044187158098966 0 0 0
70 0.23344947544474456 0.5063040156645724 -0.21548318703382355 0 0 0
52 0.2796968015919045 0.16022363820028576 -0.3963836132565656 0 0 0
3 0.3996381512693019 -0.06997506265318738 0.36400669451368 0 0 0
19 0.4259359135444289 -0.3036242270199862 0.2058231565538925 0 0 0
28 0.09618075760072947 -0.06512799182358475 0.3397247927851557 0 0 0
43 0.2346323438923723 0.8828125472406536 0.16394986680144885 0 0 0
30 -0.2143432000763582 -0.4411413641693825 0.19542430922140802 0 0 0
22 0.04093588796415753 0.0661131138532189 0.21116037653250166 0 0 0
48 -0.05298603783961127 -0.100217968404607 -0.6161332600883971 0 0 0
77 -0.44416390690682606 0.019214572845772316 -0.24810005729554294 0 0 0
97 -0.291659155413258 -0.5872585155672386 -0.32540203373340915 0 0 0
44 0.11553058422436803 -0.2940307606993417 -0.23886025282516657 0 0 0
78 -0.13283517981817586 -0.3118063509993572 -0.13942733227874676 0 0 0
71 0.0014428995033860144 -0.09630028231655707 -0.20427770577276796 0 0 0
93 -0.5524654820859236 0.08149415903826908 0.5042626097745756 0 0 0
98 -0.26319820722413845 -0.10003454397807462 0.3871569257540426 0 0 0
80 -0.05880714224963091 -0.23949220603353605 0.2076659978809096 0 0 0
72 0.21110606108847046 0.40884845625350635 -0.3218589346915952 0 0 0
81 0.45689963919335824 0.09948756242877513 -0.895781804814486 0 0 0
27 0.1951300020457201 -0.11402180264943425 0.1617274715680649 0 0 0
29 -0.1116310174679264 0.19257187158184141 0.20857110959034164 0 0 0
94 0.23251726555424843 -0.26460516852504834 0.1540849284633011 0 0 0
47 0.008874328193956787 0.39945520552883196 0.17073964244422885 0 0 0
46 0.3917478895910759 0.38553825059076596 0.4744806430668262 0 0 0
34 -0.43548731306118965 -0.14554813008075906 -0.1762184045030622 0 0 0
49 0.1214378524390421 -0.33504584056910613 -0.1832722083432141 0 0 0
50 -0.12816746582878044 -0.062051358384951454 0.15242098129626327 0 0 0
14 -0.17314215916377818 -0.4166504891118405 -0.17084103332212708 0 0 0
95 0.47981586602981324 -0.20610879195880147 -0.36729804313903247 0 0 0
83 0.5539104924453542 0.014364418302738413 -0.6525347306154743 0 0 0
18 -0.3692391094475326 -0.49132416170981397 -0.690913060110289 0 0 0
99 -0.08188132527942944 -0.20079227772952082 -0.27653425607714743 0 0 0
63 0.16719154376182108 0.19257608550178518 0.3797492106254462 0 0 0
67 -0.452998163725867 0.2875877502153501 0.37715032727750014 0 0 0
96 0.008216308678148293 -0.2567784116639929 0.49578259383013956 0 0 0
100 -0.3696424972168937 -0.1938013384010656 -0.20239159171827442 0 0 0
68 -0.1160487778600246 0.15218489547839487 -0.23572608336409923 0 0 0
45 0.32349943814195775 -0.09929677238342109 -0.12188252762537398 0 0 0
33 0.45678328016825487 0.24544695468016708 -0.2444814414210015 0 0 0

Ellipsoids

5 0.4 0.4 0.8 -0.8201868888528709 -0.079787876086599 -0.3826168807309004 0.41776989451514307
11 0.4 0.4 0.8 0.38859123247990973 0.15476041343427147 -0.9040012116964022 -0.08847529443203075
2 0.4 0.4 0.8 0.02425649887001293 -0.19052881644069816 0.950394466054519 -0.24466456887179575
10 0.4 0.4 0.8 0.21746947492763655 0.77398974574083 0.17340618499497332 0.5688384621034627
8 0.4 0.4 0.8 0.9332136468749389 -0.10106528839873798 0.0850133641085202 -0.3341718490390968
12 0.4 0.4 0.8 -0.28841339397795746 -0.30901951091204355 -0.6714112699447558 0.6087130380080314
53 0.4 0.4 0.8 0.06809527366323892 0.11810601325463395 0.36892351480141056 -0.9194071152456882
57 0.4 0.4 0.8 -0.16221050365808176 0.7090549844965999 -0.4375562405528498 -0.5286523600786955
59 0.4 0.4 0.8 -0.14614312859973574 -0.2722251427814296 0.8519396703822956 -0.4227699795747293
58 0.4 0.4 0.8 -0.028957758894307475 -0.3550080546907442 -0.641952777260438 -0.6789899565325863
61 0.4 0.4 0.8 0.3698964515577882 -0.6358253249616104 0.5172982483308418 0.43738460596626183
62 0.4 0.4 0.8 -0.023652531366884378 0.32109245139982373 -0.9004651860752534 0.29240835159148526
66 0.4 0.4 0.8 0.9393362526499307 -0.06629773047888425 -0.22654523959314596 0.2488559217873246
1 0.4 0.4 0.8 -0.18335027296774725 0.5454699141174355 -0.7102716319687384 -0.4054127020899016
60 0.4 0.4 0.8 -0.5602146996380465 0.29946244021944274 -0.02836343929696212 0.771801303781302
7 0.4 0.4 0.8 -0.001207910523568374 0.1633334387312661 -0.985711935992759 0.04114253256417048
21 0.4 0.4 0.8 -0.29812942698057243 0.6660589610987994 -0.38932474273645756 -0.562059204889854
23 0.4 0.4 0.8 -0.8371183966465895 0.20552858063365775 -0.5001101090842202 0.08294981211748882
31 0.4 0.4 0.8 0.1496197021315966 0.6116225783345673 0.6909424076147525 0.3551483574014638
35 0.4 0.4 0.8 -0.18789531292826525 0.39763972500405936 0.0628059195739834 -0.8958981063406439
26 0.4 0.4 0.8 0.22444892705197517 0.6038994147876924 -0.7498512334200998 -0.15050350063255943
36 0.4 0.4 0.8 0.04271921040697794 0.9113473774278523 0.19916265080542095 0.3577083522113201
40 0.4 0.4 0.8 -0.33421151493258794 0.030729966282579676 -0.6458529021736668 0.6857349059312848
24 0.4 0.4 0.8 -0.9631936557942145 -0.06434126896587909 0.014709719224150835 0.26057975114345194
75 0.4 0.4 0.8 0.05630349183375469 -0.07365119151955896 0.9196247686266943 0.3817010659185726
32 0.4 0.4 0.8 -0.4255129534586185 0.8247486772546224 -0.18422643616394133 -0.32371123864334334
73 0.4 0.4 0.8 0.3656491161850665 0.03511307760680005 0.9293567359773877 0.03693037919538613
85 0.4 0.4 0.8 -0.9320788225608667 -0.22960879199211576 0.18657778943830397 -0.20903970833740107
76 0.4 0.4 0.8 0.11921314352819531 -0.7376676391014865 0.5940720555037582 -0.29784739969001695
86 0.4 0.4 0.8 0.10068461753756888 0.04319319502611902 0.36772133301036264 -0.9234597863165624
90 0.4 0.4 0.8 0.7035188331263785 -0.6008796218871133 -0.3346349679237365 0.17895354056284735
74 0.4 0.4 0.8 -0.5295234018728132 0.7098796169700026 -0.3331279836862364 0.32357633220726817
25 0.4 0.4 0.8 -0.08410673611992203 0.49752099765720353 0.8087006608908376 0.3023278930303276
39 0.4 0.4 0.8 -0.012165745607611422 0.3999901328385855 0.033423790916830856 -0.9158289897499039
9 0.4 0.4 0.8 -0.17058668077641548 -0.6654552900604882 0.6670543714674075 0.2882844199370107
38 0.4 0.4 0.8 -0.7944685864849454 0.020470611918823996 -0.3854824868835113 -0.46883245561968667
42 0.4 0.4 0.8 0.572003772253335 0.1522901484878025 -0.6310873543583858 0.5013463337558688
6 0.4 0.4 0.8 -0.26341334692945817 -0.07001721328540997 0.892796504352268 -0.35864383491081675
89 0.4 0.4 0.8 0.7572778804357065 0.0329097310869496 0.6021415383472478 0.2507443502841059
91 0.4 0.4 0.8 0.5034485563946837 0.11398430481258147 -0.8431157438263513 0.15067505378343118
87 0.4 0.4 0.8 -0.8354896403490518 -0.5377030907059603 -0.11230196955566289 0.014856471606300463
55 0.4 0.4 0.8 0.14386446030819025 -0.4151406611147074 0.8698052204509261 -0.22449972611518426
88 0.4 0.4 0.8 -0.07371176996149902 0.48747018406573356 -0.8467994234109024 0.19967506385882564
84 0.4 0.4 0.8 0.29606868542871434 -0.43977578988603144 -0.5062156771434607 -0.6802104647480938
56 0.4 0.4 0.8 -0.2960308682002676 0.6940593060121217 -0.6406153498580504 -0.14233544300986836
92 0.4 0.4 0.8 -0.40155522170517893 -0.013775363783129645 0.11744621869752528 -0.9081685025300096
82 0.4 0.4 0.8 0.562577804198991 -0.05581236162840736 0.25833862003942965 -0.783359656804092
41 0.4 0.4 0.8 0.6749328069228315 0.10496945719293006 0.514950436086291 -0.5179509316242497
37 0.4 0.4 0.8 0.0799235124437039 -0.5368036342244162 -0.4538752320576564 -0.7067187305899916
13 0.4 0.4 0.8 -0.020541353957190263 0.5820595420817216 -0.46694402696915216 0.6653931303575756
17 0.4 0.4 0.8 -0.29204745674888904 -0.07223808799842024 0.36141359336539686 0.8825362067244322
15 0.4 0.4 0.8 0.2722664083710454 -0.0032687829596919162 0.19963419630861098 0.9412791857865065
4 0.4 0.4 0.8 0.5775973754583935 -0.17812044924920134 -0.4053988160425218 -0.6857887264851762
16 0.4 0.4 0.8 0.1709385119332148 0.6167728746436427 0.7292623131148154 -0.24196637144922578
20 0.4 0.4 0.8 0.33045229097926426 -0.16263016623841875 -0.33938858328218247 -0.865544973963533
69 0.4 0.4 0.8 0.3548742543965351 -0.16137732423372753 -0.6754438769732874 -0.6259370510274657
79 0.4 0.4 0.8 0.4114634179681715 -0.04847001557627906 -0.06720771914302336 -0.9076517150050329
51 0.4 0.4 0.8 -0.06166505936167259 -0.18062944718719942 0.6598445352908965 0.726756914318336
65 0.4 0.4 0.8 0.638398800788354 -0.4844959380199076 0.19375878256473733 -0.5658340669959986
54 0.4 0.4 0.8 0.8176761742815016 -0.47225640868772945 -0.10685035440286458 0.3113881183181495
64 0.4 0.4 0.8 -0.020794939097666516 -0.7992013006726854 0.025851495976443536 -0.6001471083549368
70 0.4 0.4 0.8 0.8774898676349218 0.3130947357481585 -0.3600714615994122 -0.048288313146159174
52 0.4 0.4 0.8 -0.8513989935462929 0.5092057040550194 0.08085654601961037 -0.09639255008541907
3 0.4 0.4 0.8 -0.29575253559201226 -0.6902552704681818 -0.6452076599701533 -0.14065978386742856
19 0.4 0.4 0.8 0.5113019882278463 0.6188602047988448 -0.29991764699458007 -0.5153947310283813
28 0.4 0.4 0.8 -0.3189924423623961 0.1312734147870974 -0.7359439456786364 0.5825784248534855
43 0.4 0.4 0.8 0.24930803046291716 -0.6260682687567817 -0.3216313381681578 -0.6651596132589137
30 0.4 0.4 0.8 -0.11691012703965126 0.17021481437207991 -0.917251625326306 -0.34060005138006205
22 0.4 0.4 0.8 -0.6557996066854527 0.5584446608284588 0.3085802154879212 0.4035401928839574
48 0.4 0.4 0.8 -0.47967252573203034 -0.012075740026867104 -0.805468855552015 -0.34783382138082214
77 0.4 0.4 0.8 0.0828503799423918 0.15204503958606133 0.5140620983606498 0.8400942087109755
97 0.4 0.4 0.8 -0.3150264040652747 0.7332857524507241 0.3703767321634938 -0.47525934632195205
44 0.4 0.4 0.8 0.6353022493207525 -0.1045615146664165 -0.750150226805381 -0.15077326978775962
78 0.4 0.4 0.8 -0.09138853037825656 0.3039000266172499 0.4050672134163455 -0.8574458950583729
71 0.4 0.4 0.8 -0.17421258843545115 -0.8154468084640693 0.4865839131752669 0.2606387769220614
93 0.4 0.4 0.8 -0.8517790299586195 -0.48678842216970547 0.19354016517312367 -0.007191705572515008
98 0.4 0.4 0.8 0.4840845187948722 -0.027644152083275145 0.4175428572593255 0.768476376911127
80 0.4 0.4 0.8 0.2723845493694607 -0.21154649569070846 -0.19287328358029016 -0.9186156072627625
72 0.4 0.4 0.8 -0.4623750106319617 -0.8851968867653035 0.04479292144670574 0.025088152430521458
81 0.4 0.4 0.8 0.4062347865898662 0.7755158999971316 0.4764764019301991 0.08073800480304452
27 0.4 0.4 0.8 0.25220083895829387 -0.5816883807873402 0.6631094241430371 -0.39789352356933977
29 0.4 0.4 0.8 -0.05850476918162671 -0.37862329750298857 0.7000115307534553 -0.6026652863598272
94 0.4 0.4 0.8 -0.029257776059315916 -0.39507433039017087 0.8517381292395678 0.34293208541386516
47 0.4 0.4 0.8 -0.0805923803115347 0.8565533941451003 0.3767656886651189 0.3433202106764589
46 0.4 0.4 0.8 0.014198339665404678 -0.9144655887726524 -0.005129966710056496 0.40438196985398056
34 0.4 0.4 0.8 0.5687084572413182 -0.1730633039803444 -0.8034732028556979 -0.032412895125444985
49 0.4 0.4 0.8 0.0744182769743064 0.21388810786041063 0.8728967721116063 -0.4321631897850711
50 0.4 0.4 0.8 -0.4905357036603709 -0.30799414302859784 -0.5392379628174903 -0.6113401268941436
14 0.4 0.4 0.8 0.1379918014630709 -0.24989982951819145 0.5927643084339791 -0.7530861920009833
95 0.4 0.4 0.8 -0.38424578317725727 -0.5815191641100408 0.6707508646745222 0.2535427329300458
83 0.4 0.4 0.8 0.1454578103562729 -0.5168795093152135 0.8136566231007761 0.22280147652263033
18 0.4 0.4 0.8 -0.36774321524721637 -0.6386751864209185 0.64658082012393 -0.1969572972441251
99 0.4 0.4 0.8 0.5106043985678193 -0.21183822375877792 -0.2463713656686393 0.7960583303354668
63 0.4 0.4 0.8 0.23524344446987358 -0.7647130693005664 -0.14405578257469576 0.5823421459774735
67 0.4 0.4 0.8 -0.521095225381831 0.647851872594453 0.552247954721407 -0.06139962350163418
96 0.4 0.4 0.8 0.6141171915770359 -0.17115102141386312 0.6892193494148933 -0.34430232539243294
100 0.4 0.4 0.8 0.13274711506150724 0.7312921578677674 -0.6686570044139749 0.02208605288594925
68 0.4 0.4 0.8 0.09431753884610314 0.18383690049473142 -0.7238645563271804 0.6582767654837579
45 0.4 0.4 0.8 0.3033791297276849 -0.037161217962040305 0.024328935171818004 -0.9518341506999295
33 0.4 0.4 0.8 0.9040055921111089 -0.17896947741394423 -0.24502792315893832 -0.3011729278312389
