LAMMPS data file via write_data, version 7 Feb 2024, timestep = 250000, units = lj

10 atoms
1 atom types
9 bonds
1 bond types

-10 10 xlo xhi
-10 10 ylo yhi
-10 10 zlo zhi

Masses

1 1

Atoms # bond

4 1 1 4.788974242025289 -3.9038309932888327 -2.524333461636127 0 0 0
5 1 1 5.725622266746834 -3.602761672509847 -2.7503488573612005 0 0 0
6 1 1 6.322086998882823 -2.619419216214815 -3.0015218797100474 0 0 0
2 1 1 4.393241962575439 -2.173502364707978 -2.449780638477138 0 0 0
7 1 1 5.554915673908106 -2.105493967924948 -2.4296688734595526 0 0 0
3 1 1 4.389934459792501 -3.124547447987772 -2.0461879551069133 0 0 0
8 1 1 5.495825446460461 -2.321427209725554 -1.3659838723932631 0 0 0
1 1 1 3.8469011063591676 -1.4509753722795484 -1.7139740011129296 0 0 0
9 1 1 6.336328851756705 -2.9715406470625068 -0.805633277119533 0 0 0
10 1 1 7.465332651894152 -2.7963031027990115 -0.81093502163175 0 0 0

Velocities

4 0.01866517319885111 0.22891779525677663 -0.10366003331537756
5 0.024738107943596505 -0.11223255024008313 0.05924358258772053
6 0.06856474747515971 -0.17751541996074285 -0.062438325659882145
2 0.14860019815701325 -0.10101085070177306 0.27472931617985613
7 0.20882978863794266 -0.11625665503595228 0.05144431462043141
3 -0.16182284888653242 0.1599285735272178 -0.1572525507020233
8 0.07605602970718016 0.20083223838521333 0.3414003000453478
1 -0.22725726691202022 -0.1624907367042791 -0.07249433669817172
9 0.02718560820413796 0.02787364852326781 -0.1543860229576729
10 -0.18355953752534035 0.05195395695033776 -0.17658624410026566

Bonds

1 1 4 5
2 1 5 6
3 1 6 7
4 1 2 3
5 1 7 8
6 1 3 4
7 1 8 9
8 1 1 2
9 1 9 10
