ITEM: TIMESTEP
0
ITEM: NUMBER OF ATOMS
10
ITEM: BOX BOUNDS pp pp pp
-1.0000000000000000e+01 1.0000000000000000e+01
-1.0000000000000000e+01 1.0000000000000000e+01
-1.0000000000000000e+01 1.0000000000000000e+01
ITEM: ATOMS id type xs ys zs
1 1 0.683604 0.319026 0.177474
2 1 0.692961 0.327642 0.229825
3 1 0.706299 0.338067 0.277719
4 1 0.733743 0.348302 0.320214
5 1 0.763298 0.354137 0.366622
6 1 0.774956 0.367163 0.413904
7 1 0.815159 0.38506 0.469103
8 1 0.845834 0.391398 0.525133
9 1 0.848562 0.400303 0.589669
10 1 0.851541 0.415412 0.63542
ITEM: TIMESTEP
1000
ITEM: NUMBER OF ATOMS
10
ITEM: BOX BOUNDS pp pp pp
-1.0000000000000000e+01 1.0000000000000000e+01
-1.0000000000000000e+01 1.0000000000000000e+01
-1.0000000000000000e+01 1.0000000000000000e+01
ITEM: ATOMS id type xs ys zs
1 1 0.683444 0.318878 0.176562
2 1 0.692174 0.327045 0.227313
3 1 0.705802 0.338276 0.278918
4 1 0.735476 0.348896 0.322893
5 1 0.764207 0.355022 0.369488
6 1 0.786098 0.371657 0.427561
7 1 0.812715 0.381974 0.470648
8 1 0.836717 0.390994 0.520952
9 1 0.847722 0.397992 0.57446
10 1 0.851603 0.415775 0.636287
ITEM: TIMESTEP
2000
ITEM: NUMBER OF ATOMS
10
ITEM: BOX BOUNDS pp pp pp
-1.0000000000000000e+01 1.0000000000000000e+01
-1.0000000000000000e+01 1.0000000000000000e+01
-1.0000000000000000e+01 1.0000000000000000e+01
ITEM: ATOMS id type xs ys zs
1 1 0.682831 0.318309 0.173064
2 1 0.692054 0.327063 0.22827
3 1 0.706731 0.338851 0.2816
4 1 0.740594 0.350346 0.332089
5 1 0.767319 0.360294 0.383824
6 1 0.793319 0.37179 0.425718
7 1 0.811465 0.377635 0.474064
8 1 0.825431 0.392096 0.52213
9 1 0.845916 0.400266 0.568998
10 1 0.850297 0.40986 0.615324
ITEM: TIMESTEP
3000
ITEM: NUMBER OF ATOMS
10
ITEM: BOX BOUNDS pp pp pp
-1.0000000000000000e+01 1.0000000000000000e+01
-1.0000000000000000e+01 1.0000000000000000e+01
-1.0000000000000000e+01 1.0000000000000000e+01
ITEM: ATOMS id type xs ys zs
1 1 0.683586 0.31903 0.177634
2 1 0.694448 0.328602 0.233903
3 1 0.715925 0.340759 0.289918
4 1 0.740723 0.34985 0.335942
5 1 0.76205 0.362717 0.382868
6 1 0.80041 0.372358 0.420421
7 1 0.808834 0.372487 0.477555
8 1 0.811233 0.392698 0.522225
9 1 0.848323 0.401954 0.556976
10 1 0.850426 0.406057 0.607638
ITEM: TIMESTEP
4000
ITEM: NUMBER OF ATOMS
10
ITEM: BOX BOUNDS pp pp pp
-1.0000000000000000e+01 1.0000000000000000e+01
-1.0000000000000000e+01 1.0000000000000000e+01
-1.0000000000000000e+01 1.0000000000000000e+01
ITEM: ATOMS id type xs ys zs
1 1 0.686942 0.322006 0.19536
2 1 0.700117 0.331586 0.243223
3 1 0.721647 0.339729 0.284682
4 1 0.738331 0.348704 0.336369
5 1 0.759329 0.365674 0.384655
6 1 0.80519 0.371802 0.418987
7 1 0.807557 0.364273 0.468947
8 1 0.794615 0.395884 0.521414
9 1 0.85062 0.403303 0.544836
10 1 0.85161 0.403551 0.606609
ITEM: TIMESTEP
5000
ITEM: NUMBER OF ATOMS
10
ITEM: BOX BOUNDS pp pp pp
-1.0000000000000000e+01 1.0000000000000000e+01
-1.0000000000000000e+01 1.0000000000000000e+01
-1.0000000000000000e+01 1.0000000000000000e+01
ITEM: ATOMS id type xs ys zs
1 1 0.687121 0.322732 0.20325
2 1 0.70244 0.334464 0.250217
3 1 0.733825 0.341043 0.291601
4 1 0.738166 0.349224 0.341711
5 1 0.760768 0.3678 0.38622
6 1 0.803947 0.371021 0.413312
7 1 0.802374 0.364843 0.474757
8 1 0.798318 0.39228 0.513888
9 1 0.836347 0.402224 0.542915
10 1 0.852653 0.400878 0.587209
ITEM: TIMESTEP
6000
ITEM: NUMBER OF ATOMS
10
ITEM: BOX BOUNDS pp pp pp
-1.0000000000000000e+01 1.0000000000000000e+01
-1.0000000000000000e+01 1.0000000000000000e+01
-1.0000000000000000e+01 1.0000000000000000e+01
ITEM: ATOMS id type xs ys zs
1 1 0.685337 0.322176 0.204508
2 1 0.703684 0.337818 0.259211
3 1 0.748693 0.34219 0.297135
4 1 0.736637 0.349255 0.350085
5 1 0.76126 0.371266 0.389174
6 1 0.805102 0.36934 0.421232
7 1 0.79737 0.360861 0.461228
8 1 0.791656 0.391188 0.505197
9 1 0.826428 0.404874 0.536918
10 1 0.859792 0.397543 0.580393
ITEM: TIMESTEP
7000
ITEM: NUMBER OF ATOMS
10
ITEM: BOX BOUNDS pp pp pp
-1.0000000000000000e+01 1.0000000000000000e+01
-1.0000000000000000e+01 1.0000000000000000e+01
-1.0000000000000000e+01 1.0000000000000000e+01
ITEM: ATOMS id type xs ys zs
1 1 0.688063 0.325466 0.219602
2 1 0.711521 0.338393 0.263456
3 1 0.751091 0.34255 0.296794
4 1 0.734524 0.347422 0.351681
5 1 0.761292 0.37644 0.394485
6 1 0.813509 0.372866 0.408459
7 1 0.787766 0.347735 0.463487
8 1 0.778458 0.39153 0.496644
9 1 0.824267 0.409093 0.536824
10 1 0.865466 0.395015 0.573649
ITEM: TIMESTEP
8000
ITEM: NUMBER OF ATOMS
10
ITEM: BOX BOUNDS pp pp pp
-1.0000000000000000e+01 1.0000000000000000e+01
-1.0000000000000000e+01 1.0000000000000000e+01
-1.0000000000000000e+01 1.0000000000000000e+01
ITEM: ATOMS id type xs ys zs
1 1 0.688436 0.327446 0.230278
2 1 0.719275 0.339934 0.269087
3 1 0.753367 0.34399 0.307607
4 1 0.73986 0.349996 0.352854
5 1 0.758986 0.376194 0.392354
6 1 0.808695 0.366866 0.415151
7 1 0.787402 0.35202 0.452519
8 1 0.782703 0.390402 0.495689
9 1 0.815244 0.404325 0.530905
10 1 0.861989 0.395337 0.558637
ITEM: TIMESTEP
9000
ITEM: NUMBER OF ATOMS
10
ITEM: BOX BOUNDS pp pp pp
-1.0000000000000000e+01 1.0000000000000000e+01
-1.0000000000000000e+01 1.0000000000000000e+01
-1.0000000000000000e+01 1.0000000000000000e+01
ITEM: ATOMS id type xs ys zs
1 1 0.684765 0.32779 0.235984
2 1 0.725332 0.342396 0.273883
3 1 0.765638 0.344379 0.311281
4 1 0.738073 0.350608 0.361517
5 1 0.762635 0.379827 0.396345
6 1 0.807641 0.363156 0.408523
7 1 0.778944 0.357743 0.456587
8 1 0.785635 0.383942 0.488606
9 1 0.809528 0.400362 0.53023
10 1 0.857768 0.396307 0.542124
ITEM: TIMESTEP
10000
ITEM: NUMBER OF ATOMS
10
ITEM: BOX BOUNDS pp pp pp
-1.0000000000000000e+01 1.0000000000000000e+01
-1.0000000000000000e+01 1.0000000000000000e+01
-1.0000000000000000e+01 1.0000000000000000e+01
ITEM: ATOMS id type xs ys zs
1 1 0.687299 0.330236 0.24688
2 1 0.729081 0.343022 0.277375
3 1 0.769613 0.34504 0.317216
4 1 0.738885 0.348896 0.361046
5 1 0.761227 0.387205 0.400329
6 1 0.810927 0.357933 0.405067
7 1 0.770261 0.347834 0.441348
8 1 0.784785 0.388315 0.488583
9 1 0.803113 0.401529 0.538707
10 1 0.860768 0.3965 0.528532
ITEM: TIMESTEP
11000
ITEM: NUMBER OF ATOMS
10
ITEM: BOX BOUNDS pp pp pp
-1.0000000000000000e+01 1.0000000000000000e+01
-1.0000000000000000e+01 1.0000000000000000e+01
-1.0000000000000000e+01 1.0000000000000000e+01
ITEM: ATOMS id type xs ys zs
1 1 0.690509 0.33311 0.258927
2 1 0.736444 0.343432 0.283916
3 1 0.768232 0.345449 0.320379
4 1 0.744971 0.353995 0.366214
5 1 0.762247 0.388245 0.39318
7 1 0.770339 0.347084 0.442719
6 1 0.803574 0.356708 0.404944
8 1 0.782481 0.381603 0.482409
9 1 0.804933 0.399186 0.535331
10 1 0.852229 0.397698 0.517062
ITEM: TIMESTEP
12000
ITEM: NUMBER OF ATOMS
10
ITEM: BOX BOUNDS pp pp pp
-1.0000000000000000e+01 1.0000000000000000e+01
-1.0000000000000000e+01 1.0000000000000000e+01
-1.0000000000000000e+01 1.0000000000000000e+01
ITEM: ATOMS id type xs ys zs
1 1 0.690462 0.335155 0.269003
2 1 0.739627 0.344242 0.283865
3 1 0.777271 0.345426 0.326772
4 1 0.743239 0.350323 0.369337
5 1 0.767949 0.400498 0.391616
7 1 0.768108 0.346507 0.451494
6 1 0.799436 0.356622 0.4026
8 1 0.784021 0.374257 0.485256
9 1 0.797181 0.394269 0.521148
10 1 0.848664 0.399212 0.50399
ITEM: TIMESTEP
13000
ITEM: NUMBER OF ATOMS
10
ITEM: BOX BOUNDS pp pp pp
-1.0000000000000000e+01 1.0000000000000000e+01
-1.0000000000000000e+01 1.0000000000000000e+01
-1.0000000000000000e+01 1.0000000000000000e+01
ITEM: ATOMS id type xs ys zs
1 1 0.689711 0.337028 0.278693
2 1 0.747286 0.345254 0.288674
3 1 0.780571 0.345703 0.331094
4 1 0.746991 0.356848 0.372736
6 1 0.79076 0.357783 0.408175
5 1 0.769853 0.400259 0.386456
7 1 0.763711 0.334293 0.437668
8 1 0.783402 0.368178 0.481062
9 1 0.800001 0.400482 0.528038
10 1 0.843672 0.400681 0.492486
ITEM: TIMESTEP
14000
ITEM: NUMBER OF ATOMS
10
ITEM: BOX BOUNDS pp pp pp
-1.0000000000000000e+01 1.0000000000000000e+01
-1.0000000000000000e+01 1.0000000000000000e+01
-1.0000000000000000e+01 1.0000000000000000e+01
ITEM: ATOMS id type xs ys zs
1 1 0.699106 0.34037 0.290176
2 1 0.746807 0.344819 0.293993
3 1 0.780562 0.346221 0.334771
4 1 0.740214 0.360963 0.365699
5 1 0.772671 0.402895 0.381245
7 1 0.758973 0.326538 0.442335
6 1 0.799012 0.362541 0.413419
8 1 0.78124 0.361243 0.478848
10 1 0.834336 0.402057 0.483168
9 1 0.803037 0.398862 0.521427
ITEM: TIMESTEP
15000
ITEM: NUMBER OF ATOMS
10
ITEM: BOX BOUNDS pp pp pp
-1.0000000000000000e+01 1.0000000000000000e+01
-1.0000000000000000e+01 1.0000000000000000e+01
-1.0000000000000000e+01 1.0000000000000000e+01
ITEM: ATOMS id type xs ys zs
1 1 0.697385 0.342817 0.301141
2 1 0.75491 0.345194 0.296654
4 1 0.735597 0.367094 0.360348
3 1 0.783447 0.346689 0.341003
5 1 0.777462 0.396447 0.380928
6 1 0.79283 0.365624 0.41951
7 1 0.767297 0.332236 0.444403
8 1 0.781547 0.359439 0.483666
10 1 0.830744 0.403738 0.46718
9 1 0.794738 0.387233 0.510249
ITEM: TIMESTEP
16000
ITEM: NUMBER OF ATOMS
10
ITEM: BOX BOUNDS pp pp pp
-1.0000000000000000e+01 1.0000000000000000e+01
-1.0000000000000000e+01 1.0000000000000000e+01
-1.0000000000000000e+01 1.0000000000000000e+01
ITEM: ATOMS id type xs ys zs
1 1 0.703217 0.345369 0.31081
2 1 0.754844 0.345438 0.299844
4 1 0.736816 0.374295 0.354269
3 1 0.783825 0.343773 0.345774
5 1 0.778502 0.394102 0.379321
6 1 0.791791 0.372419 0.425164
7 1 0.765802 0.32258 0.43828
8 1 0.77752 0.345946 0.482936
10 1 0.821168 0.40282 0.459487
9 1 0.802474 0.399767 0.509197
ITEM: TIMESTEP
17000
ITEM: NUMBER OF ATOMS
10
ITEM: BOX BOUNDS pp pp pp
-1.0000000000000000e+01 1.0000000000000000e+01
-1.0000000000000000e+01 1.0000000000000000e+01
-1.0000000000000000e+01 1.0000000000000000e+01
ITEM: ATOMS id type xs ys zs
1 1 0.704315 0.344569 0.317105
2 1 0.755589 0.345746 0.301964
4 1 0.745256 0.379291 0.349934
3 1 0.77902 0.337418 0.346058
5 1 0.779784 0.402333 0.380892
6 1 0.780491 0.363766 0.423731
7 1 0.766515 0.317254 0.433273
8 1 0.782135 0.350875 0.48694
10 1 0.822153 0.412341 0.460521
9 1 0.800701 0.392917 0.504663
ITEM: TIMESTEP
18000
ITEM: NUMBER OF ATOMS
10
ITEM: BOX BOUNDS pp pp pp
-1.0000000000000000e+01 1.0000000000000000e+01
-1.0000000000000000e+01 1.0000000000000000e+01
-1.0000000000000000e+01 1.0000000000000000e+01
ITEM: ATOMS id type xs ys zs
1 1 0.70134 0.340884 0.319284
2 1 0.754022 0.346412 0.2994
4 1 0.757511 0.384106 0.346963
3 1 0.774761 0.332249 0.351517
5 1 0.783643 0.407995 0.39004
7 1 0.77012 0.315698 0.448214
6 1 0.770601 0.365889 0.415473
8 1 0.782267 0.345266 0.470842
10 1 0.822789 0.419871 0.460886
9 1 0.798904 0.388141 0.502461
ITEM: TIMESTEP
19000
ITEM: NUMBER OF ATOMS
10
ITEM: BOX BOUNDS pp pp pp
-1.0000000000000000e+01 1.0000000000000000e+01
-1.0000000000000000e+01 1.0000000000000000e+01
-1.0000000000000000e+01 1.0000000000000000e+01
ITEM: ATOMS id type xs ys zs
1 1 0.703467 0.337439 0.319551
2 1 0.750041 0.345013 0.305511
4 1 0.772011 0.387875 0.348058
3 1 0.767216 0.331982 0.34994
5 1 0.784985 0.410853 0.394757
7 1 0.764396 0.30507 0.438814
6 1 0.761901 0.355936 0.416103
8 1 0.789435 0.356703 0.46785
10 1 0.820205 0.423984 0.467012
9 1 0.8023 0.391654 0.497485
ITEM: TIMESTEP
20000
ITEM: NUMBER OF ATOMS
10
ITEM: BOX BOUNDS pp pp pp
-1.0000000000000000e+01 1.0000000000000000e+01
-1.0000000000000000e+01 1.0000000000000000e+01
-1.0000000000000000e+01 1.0000000000000000e+01
ITEM: ATOMS id type xs ys zs
1 1 0.697515 0.332897 0.322308
2 1 0.751375 0.346942 0.30129
3 1 0.763119 0.336826 0.355822
4 1 0.78699 0.385305 0.350702
7 1 0.765459 0.31441 0.433289
6 1 0.756487 0.357022 0.406421
5 1 0.778146 0.395471 0.405547
8 1 0.791511 0.349285 0.460437
10 1 0.822207 0.435756 0.465564
9 1 0.80315 0.392595 0.503702
ITEM: TIMESTEP
21000
ITEM: NUMBER OF ATOMS
10
ITEM: BOX BOUNDS pp pp pp
-1.0000000000000000e+01 1.0000000000000000e+01
-1.0000000000000000e+01 1.0000000000000000e+01
-1.0000000000000000e+01 1.0000000000000000e+01
ITEM: ATOMS id type xs ys zs
1 1 0.701485 0.33086 0.321301
2 1 0.742077 0.346767 0.299806
3 1 0.764431 0.337515 0.342923
4 1 0.798458 0.379834 0.360052
7 1 0.768937 0.319002 0.432622
6 1 0.733805 0.356334 0.408094
5 1 0.782839 0.395335 0.409271
8 1 0.798958 0.350935 0.468646
10 1 0.819632 0.43703 0.473115
9 1 0.805336 0.392896 0.489253
ITEM: TIMESTEP
22000
ITEM: NUMBER OF ATOMS
10
ITEM: BOX BOUNDS pp pp pp
-1.0000000000000000e+01 1.0000000000000000e+01
-1.0000000000000000e+01 1.0000000000000000e+01
-1.0000000000000000e+01 1.0000000000000000e+01
ITEM: ATOMS id type xs ys zs
1 1 0.698313 0.325839 0.324344
2 1 0.737586 0.35081 0.288573
3 1 0.772787 0.341996 0.336444
4 1 0.805339 0.368921 0.369497
7 1 0.768559 0.330156 0.43123
6 1 0.731601 0.361951 0.414103
5 1 0.772524 0.385074 0.410655
8 1 0.803071 0.339449 0.469638
10 1 0.819842 0.448078 0.478733
9 1 0.806336 0.394236 0.481864
ITEM: TIMESTEP
23000
ITEM: NUMBER OF ATOMS
10
ITEM: BOX BOUNDS pp pp pp
-1.0000000000000000e+01 1.0000000000000000e+01
-1.0000000000000000e+01 1.0000000000000000e+01
-1.0000000000000000e+01 1.0000000000000000e+01
ITEM: ATOMS id type xs ys zs
1 1 0.700977 0.324834 0.32175
2 1 0.734732 0.348937 0.293196
3 1 0.777147 0.350593 0.32393
4 1 0.806457 0.356871 0.376114
7 1 0.766754 0.325128 0.434492
6 1 0.721737 0.363706 0.422334
5 1 0.773226 0.392957 0.403154
8 1 0.807596 0.335162 0.472026
9 1 0.80835 0.395283 0.475107
10 1 0.818982 0.453038 0.482978
ITEM: TIMESTEP
24000
ITEM: NUMBER OF ATOMS
10
ITEM: BOX BOUNDS pp pp pp
-1.0000000000000000e+01 1.0000000000000000e+01
-1.0000000000000000e+01 1.0000000000000000e+01
-1.0000000000000000e+01 1.0000000000000000e+01
ITEM: ATOMS id type xs ys zs
1 1 0.699361 0.320518 0.322521
2 1 0.738269 0.350649 0.295904
3 1 0.787281 0.361164 0.323225
4 1 0.793944 0.348477 0.374414
7 1 0.761628 0.325994 0.442821
6 1 0.735037 0.36515 0.425932
5 1 0.766494 0.391043 0.396285
8 1 0.805779 0.346456 0.469484
9 1 0.813431 0.394864 0.468355
10 1 0.814734 0.442195 0.48614
ITEM: TIMESTEP
25000
ITEM: NUMBER OF ATOMS
10
ITEM: BOX BOUNDS pp pp pp
-1.0000000000000000e+01 1.0000000000000000e+01
-1.0000000000000000e+01 1.0000000000000000e+01
-1.0000000000000000e+01 1.0000000000000000e+01
ITEM: ATOMS id type xs ys zs
1 1 0.702048 0.319453 0.321513
2 1 0.744011 0.350271 0.304143
3 1 0.791198 0.369823 0.321673
4 1 0.779686 0.342683 0.371068
6 1 0.748218 0.369613 0.432579
5 1 0.760302 0.388858 0.382486
7 1 0.759113 0.322573 0.455533
8 1 0.799599 0.347795 0.465841
9 1 0.821163 0.397012 0.458177
10 1 0.810619 0.438428 0.492069
ITEM: TIMESTEP
26000
ITEM: NUMBER OF ATOMS
10
ITEM: BOX BOUNDS pp pp pp
-1.0000000000000000e+01 1.0000000000000000e+01
-1.0000000000000000e+01 1.0000000000000000e+01
-1.0000000000000000e+01 1.0000000000000000e+01
ITEM: ATOMS id type xs ys zs
1 1 0.706601 0.319964 0.318279
2 1 0.747594 0.349769 0.311732
3 1 0.792085 0.373378 0.328026
4 1 0.770696 0.337115 0.361412
5 1 0.754572 0.389826 0.375989
6 1 0.757484 0.371981 0.434103
7 1 0.751183 0.317497 0.464865
8 1 0.800981 0.352186 0.463976
9 1 0.827 0.401979 0.451462
10 1 0.807762 0.432815 0.495238
ITEM: TIMESTEP
27000
ITEM: NUMBER OF ATOMS
10
ITEM: BOX BOUNDS pp pp pp
-1.0000000000000000e+01 1.0000000000000000e+01
-1.0000000000000000e+01 1.0000000000000000e+01
-1.0000000000000000e+01 1.0000000000000000e+01
ITEM: ATOMS id type xs ys zs
1 1 0.706502 0.317722 0.315559
2 1 0.746895 0.358237 0.297437
3 1 0.789161 0.373037 0.336126
4 1 0.772516 0.335607 0.373001
5 1 0.749598 0.379435 0.384644
6 1 0.759911 0.362503 0.424279
7 1 0.756066 0.339897 0.463701
8 1 0.802784 0.356164 0.464696
9 1 0.8255 0.400889 0.452318
10 1 0.807026 0.423018 0.49332
ITEM: TIMESTEP
28000
ITEM: NUMBER OF ATOMS
10
ITEM: BOX BOUNDS pp pp pp
-1.0000000000000000e+01 1.0000000000000000e+01
-1.0000000000000000e+01 1.0000000000000000e+01
-1.0000000000000000e+01 1.0000000000000000e+01
ITEM: ATOMS id type xs ys zs
1 1 0.716068 0.324796 0.308829
2 1 0.746267 0.360778 0.296183
4 1 0.778596 0.330447 0.373164
5 1 0.738432 0.37907 0.375849
3 1 0.775981 0.366749 0.33626
6 1 0.765422 0.356395 0.424086
7 1 0.752657 0.35412 0.479578
8 1 0.809944 0.356386 0.468232
9 1 0.828705 0.401506 0.446134
10 1 0.803886 0.416262 0.496766
ITEM: TIMESTEP
29000
ITEM: NUMBER OF ATOMS
10
ITEM: BOX BOUNDS pp pp pp
-1.0000000000000000e+01 1.0000000000000000e+01
-1.0000000000000000e+01 1.0000000000000000e+01
-1.0000000000000000e+01 1.0000000000000000e+01
ITEM: ATOMS id type xs ys zs
1 1 0.719573 0.324387 0.304628
2 1 0.747344 0.370995 0.285375
4 1 0.773385 0.33372 0.374082
5 1 0.738092 0.36219 0.380889
3 1 0.773772 0.362496 0.33176
6 1 0.762838 0.358361 0.429424
7 1 0.760207 0.365635 0.48453
8 1 0.808004 0.356847 0.473403
9 1 0.828063 0.403903 0.448581
10 1 0.80468 0.407976 0.49241
ITEM: TIMESTEP
30000
ITEM: NUMBER OF ATOMS
10
ITEM: BOX BOUNDS pp pp pp
-1.0000000000000000e+01 1.0000000000000000e+01
-1.0000000000000000e+01 1.0000000000000000e+01
-1.0000000000000000e+01 1.0000000000000000e+01
ITEM: ATOMS id type xs ys zs
1 1 0.726093 0.330322 0.297389
2 1 0.744604 0.373723 0.277189
3 1 0.77238 0.36144 0.324935
4 1 0.779647 0.326917 0.375087
5 1 0.728943 0.352612 0.393536
6 1 0.754677 0.360173 0.436778
7 1 0.765745 0.378631 0.482706
8 1 0.814549 0.348656 0.467432
9 1 0.826355 0.396831 0.450845
10 1 0.802967 0.417206 0.499185
ITEM: TIMESTEP
31000
ITEM: NUMBER OF ATOMS
10
ITEM: BOX BOUNDS pp pp pp
-1.0000000000000000e+01 1.0000000000000000e+01
-1.0000000000000000e+01 1.0000000000000000e+01
-1.0000000000000000e+01 1.0000000000000000e+01
ITEM: ATOMS id type xs ys zs
1 1 0.729062 0.330335 0.290471
2 1 0.748683 0.37873 0.276512
3 1 0.769709 0.35462 0.324114
4 1 0.77288 0.333223 0.367704
5 1 0.726883 0.337473 0.394717
6 1 0.74917 0.360932 0.440547
7 1 0.775783 0.380006 0.483722
8 1 0.810689 0.344914 0.465958
9 1 0.822147 0.397133 0.459832
10 1 0.810953 0.429143 0.501505
ITEM: TIMESTEP
32000
ITEM: NUMBER OF ATOMS
10
ITEM: BOX BOUNDS pp pp pp
-1.0000000000000000e+01 1.0000000000000000e+01
-1.0000000000000000e+01 1.0000000000000000e+01
-1.0000000000000000e+01 1.0000000000000000e+01
ITEM: ATOMS id type xs ys zs
2 1 0.754283 0.38101 0.2792
1 1 0.729603 0.329258 0.28245
3 1 0.768124 0.354236 0.314112
4 1 0.763989 0.340755 0.366951
5 1 0.727923 0.322761 0.401204
6 1 0.743332 0.358216 0.441154
7 1 0.770132 0.373268 0.491432
8 1 0.806861 0.346959 0.464584
9 1 0.831399 0.40031 0.463218
10 1 0.820312 0.439737 0.500777
ITEM: TIMESTEP
33000
ITEM: NUMBER OF ATOMS
10
ITEM: BOX BOUNDS pp pp pp
-1.0000000000000000e+01 1.0000000000000000e+01
-1.0000000000000000e+01 1.0000000000000000e+01
-1.0000000000000000e+01 1.0000000000000000e+01
ITEM: ATOMS id type xs ys zs
2 1 0.750723 0.381923 0.271954
1 1 0.730541 0.335492 0.269598
3 1 0.775395 0.34884 0.316449
4 1 0.756516 0.345183 0.370142
5 1 0.729885 0.314036 0.412782
6 1 0.740257 0.354774 0.445561
7 1 0.75741 0.365446 0.489843
8 1 0.807623 0.357396 0.461862
9 1 0.837064 0.398255 0.47025
10 1 0.830543 0.445163 0.496641
ITEM: TIMESTEP
34000
ITEM: NUMBER OF ATOMS
10
ITEM: BOX BOUNDS pp pp pp
-1.0000000000000000e+01 1.0000000000000000e+01
-1.0000000000000000e+01 1.0000000000000000e+01
-1.0000000000000000e+01 1.0000000000000000e+01
ITEM: ATOMS id type xs ys zs
2 1 0.756344 0.380349 0.276637
1 1 0.7284 0.335366 0.256084
3 1 0.771018 0.351322 0.320279
4 1 0.746731 0.343907 0.370984
5 1 0.738889 0.309692 0.412089
6 1 0.734195 0.351937 0.442035
7 1 0.756697 0.35713 0.493175
8 1 0.799086 0.366915 0.464078
9 1 0.843478 0.399062 0.478904
10 1 0.841121 0.450831 0.490817
ITEM: TIMESTEP
35000
ITEM: NUMBER OF ATOMS
10
ITEM: BOX BOUNDS pp pp pp
-1.0000000000000000e+01 1.0000000000000000e+01
-1.0000000000000000e+01 1.0000000000000000e+01
-1.0000000000000000e+01 1.0000000000000000e+01
ITEM: ATOMS id type xs ys zs
1 1 0.730482 0.340902 0.246457
2 1 0.760702 0.370093 0.280042
3 1 0.760905 0.357211 0.327923
4 1 0.740105 0.340109 0.368099
5 1 0.747554 0.306302 0.407908
6 1 0.729966 0.349764 0.443194
7 1 0.754053 0.35009 0.492529
8 1 0.795707 0.380552 0.468075
9 1 0.845767 0.396757 0.48447
10 1 0.850717 0.454729 0.486384
ITEM: TIMESTEP
36000
ITEM: NUMBER OF ATOMS
10
ITEM: BOX BOUNDS pp pp pp
-1.0000000000000000e+01 1.0000000000000000e+01
-1.0000000000000000e+01 1.0000000000000000e+01
-1.0000000000000000e+01 1.0000000000000000e+01
ITEM: ATOMS id type xs ys zs
1 1 0.732267 0.347644 0.236051
2 1 0.764832 0.362129 0.275146
3 1 0.756666 0.362932 0.333542
4 1 0.72527 0.334607 0.374288
5 1 0.755806 0.30904 0.412293
6 1 0.730069 0.339776 0.441452
7 1 0.757206 0.347854 0.484128
8 1 0.790906 0.391017 0.477743
9 1 0.84246 0.40297 0.490254
10 1 0.860476 0.448541 0.480186
ITEM: TIMESTEP
37000
ITEM: NUMBER OF ATOMS
10
ITEM: BOX BOUNDS pp pp pp
-1.0000000000000000e+01 1.0000000000000000e+01
-1.0000000000000000e+01 1.0000000000000000e+01
-1.0000000000000000e+01 1.0000000000000000e+01
ITEM: ATOMS id type xs ys zs
1 1 0.735119 0.353257 0.228051
2 1 0.76546 0.355752 0.281278
4 1 0.722784 0.333631 0.375061
3 1 0.748037 0.36199 0.334753
5 1 0.763304 0.30944 0.40951
6 1 0.723717 0.334013 0.438956
7 1 0.764783 0.348833 0.479413
8 1 0.784528 0.399244 0.488712
9 1 0.837851 0.402663 0.495338
10 1 0.870374 0.447687 0.47401
ITEM: TIMESTEP
38000
ITEM: NUMBER OF ATOMS
10
ITEM: BOX BOUNDS pp pp pp
-1.0000000000000000e+01 1.0000000000000000e+01
-1.0000000000000000e+01 1.0000000000000000e+01
-1.0000000000000000e+01 1.0000000000000000e+01
ITEM: ATOMS id type xs ys zs
1 1 0.747983 0.36075 0.235163
2 1 0.753199 0.34843 0.282217
4 1 0.729321 0.332233 0.377234
3 1 0.738937 0.356351 0.33148
5 1 0.763297 0.314452 0.402244
6 1 0.727564 0.330762 0.443475
7 1 0.766267 0.353371 0.467275
8 1 0.779314 0.401354 0.497167
9 1 0.836107 0.411879 0.497178
10 1 0.873968 0.436929 0.471648
ITEM: TIMESTEP
39000
ITEM: NUMBER OF ATOMS
10
ITEM: BOX BOUNDS pp pp pp
-1.0000000000000000e+01 1.0000000000000000e+01
-1.0000000000000000e+01 1.0000000000000000e+01
-1.0000000000000000e+01 1.0000000000000000e+01
ITEM: ATOMS id type xs ys zs
1 1 0.759482 0.36955 0.235508
2 1 0.744248 0.338395 0.283472
3 1 0.728723 0.354248 0.329253
4 1 0.722767 0.335403 0.376072
5 1 0.770821 0.315353 0.409208
6 1 0.734383 0.324763 0.441322
7 1 0.771792 0.366513 0.460393
8 1 0.781223 0.395397 0.501937
9 1 0.826591 0.419961 0.498001
10 1 0.87593 0.426926 0.469916
ITEM: TIMESTEP
40000
ITEM: NUMBER OF ATOMS
10
ITEM: BOX BOUNDS pp pp pp
-1.0000000000000000e+01 1.0000000000000000e+01
-1.0000000000000000e+01 1.0000000000000000e+01
-1.0000000000000000e+01 1.0000000000000000e+01
ITEM: ATOMS id type xs ys zs
1 1 0.767752 0.371921 0.245317
2 1 0.739561 0.334279 0.271357
3 1 0.719424 0.353913 0.328039
4 1 0.726594 0.331926 0.386753
5 1 0.772846 0.319837 0.400977
6 1 0.741696 0.328203 0.449409
7 1 0.769852 0.371221 0.450026
8 1 0.781761 0.391045 0.505397
9 1 0.825171 0.429797 0.495746
10 1 0.871303 0.414369 0.47206
ITEM: TIMESTEP
41000
ITEM: NUMBER OF ATOMS
10
ITEM: BOX BOUNDS pp pp pp
-1.0000000000000000e+01 1.0000000000000000e+01
-1.0000000000000000e+01 1.0000000000000000e+01
-1.0000000000000000e+01 1.0000000000000000e+01
ITEM: ATOMS id type xs ys zs
1 1 0.773525 0.371268 0.257715
2 1 0.729812 0.340532 0.278306
3 1 0.719742 0.337994 0.326395
4 1 0.724115 0.337738 0.375202
5 1 0.774305 0.324458 0.402251
6 1 0.752487 0.32873 0.449042
7 1 0.771454 0.382352 0.451338
9 1 0.817243 0.430406 0.494459
10 1 0.863396 0.403893 0.475489
8 1 0.789879 0.389139 0.494886
ITEM: TIMESTEP
42000
ITEM: NUMBER OF ATOMS
10
ITEM: BOX BOUNDS pp pp pp
-1.0000000000000000e+01 1.0000000000000000e+01
-1.0000000000000000e+01 1.0000000000000000e+01
-1.0000000000000000e+01 1.0000000000000000e+01
ITEM: ATOMS id type xs ys zs
1 1 0.774591 0.366651 0.27277
2 1 0.725684 0.353166 0.27616
3 1 0.718435 0.319004 0.323462
4 1 0.728957 0.342474 0.374823
5 1 0.769031 0.330754 0.397189
6 1 0.765596 0.334974 0.451796
7 1 0.766742 0.386318 0.442717
8 1 0.797344 0.381903 0.494203
9 1 0.81993 0.436111 0.490259
10 1 0.849648 0.395155 0.481701
ITEM: TIMESTEP
43000
ITEM: NUMBER OF ATOMS
10
ITEM: BOX BOUNDS pp pp pp
-1.0000000000000000e+01 1.0000000000000000e+01
-1.0000000000000000e+01 1.0000000000000000e+01
-1.0000000000000000e+01 1.0000000000000000e+01
ITEM: ATOMS id type xs ys zs
1 1 0.77764 0.363059 0.287213
2 1 0.718881 0.355349 0.283511
3 1 0.719258 0.313929 0.318543
4 1 0.723413 0.345373 0.362608
5 1 0.773813 0.3345 0.398684
6 1 0.777613 0.3387 0.453409
7 1 0.767648 0.391524 0.443116
8 1 0.787684 0.385338 0.487138
9 1 0.814948 0.429709 0.487907
10 1 0.855061 0.389028 0.482953
ITEM: TIMESTEP
44000
ITEM: NUMBER OF ATOMS
10
ITEM: BOX BOUNDS pp pp pp
-1.0000000000000000e+01 1.0000000000000000e+01
-1.0000000000000000e+01 1.0000000000000000e+01
-1.0000000000000000e+01 1.0000000000000000e+01
ITEM: ATOMS id type xs ys zs
3 1 0.721077 0.311641 0.314343
2 1 0.722401 0.358637 0.29444
1 1 0.770003 0.357974 0.301019
4 1 0.732578 0.342905 0.358538
5 1 0.763628 0.341756 0.395517
7 1 0.766003 0.394669 0.435006
6 1 0.788351 0.345126 0.447254
8 1 0.776159 0.386204 0.48923
9 1 0.81813 0.418389 0.485042
10 1 0.857628 0.38921 0.484692
ITEM: TIMESTEP
45000
ITEM: NUMBER OF ATOMS
10
ITEM: BOX BOUNDS pp pp pp
-1.0000000000000000e+01 1.0000000000000000e+01
-1.0000000000000000e+01 1.0000000000000000e+01
-1.0000000000000000e+01 1.0000000000000000e+01
ITEM: ATOMS id type xs ys zs
3 1 0.722773 0.30703 0.314564
2 1 0.717 0.36522 0.300645
1 1 0.77535 0.354188 0.312083
4 1 0.735348 0.337304 0.351999
5 1 0.757839 0.348135 0.401803
6 1 0.796012 0.354411 0.435065
7 1 0.764613 0.395776 0.433367
8 1 0.765182 0.385806 0.486258
10 1 0.867063 0.384207 0.486249
9 1 0.814778 0.414432 0.483049
ITEM: TIMESTEP
46000
ITEM: NUMBER OF ATOMS
10
ITEM: BOX BOUNDS pp pp pp
-1.0000000000000000e+01 1.0000000000000000e+01
-1.0000000000000000e+01 1.0000000000000000e+01
-1.0000000000000000e+01 1.0000000000000000e+01
ITEM: ATOMS id type xs ys zs
3 1 0.721685 0.310718 0.305549
2 1 0.726558 0.357933 0.312192
1 1 0.777376 0.357099 0.308864
4 1 0.727794 0.330389 0.361588
5 1 0.752277 0.347476 0.404048
6 1 0.803511 0.36331 0.425072
7 1 0.764891 0.405431 0.434853
8 1 0.76264 0.390426 0.482954
10 1 0.863497 0.386187 0.486966
9 1 0.815729 0.397542 0.482995
ITEM: TIMESTEP
47000
ITEM: NUMBER OF ATOMS
10
ITEM: BOX BOUNDS pp pp pp
-1.0000000000000000e+01 1.0000000000000000e+01
-1.0000000000000000e+01 1.0000000000000000e+01
-1.0000000000000000e+01 1.0000000000000000e+01
ITEM: ATOMS id type xs ys zs
3 1 0.721142 0.307722 0.309733
2 1 0.731763 0.363773 0.321688
1 1 0.78364 0.360127 0.303856
4 1 0.721192 0.318339 0.363103
5 1 0.752287 0.347075 0.408563
6 1 0.798915 0.375989 0.412393
7 1 0.769551 0.411261 0.429486
10 1 0.86734 0.388064 0.488415
8 1 0.759803 0.392897 0.485531
9 1 0.810325 0.381262 0.482313
ITEM: TIMESTEP
48000
ITEM: NUMBER OF ATOMS
10
ITEM: BOX BOUNDS pp pp pp
-1.0000000000000000e+01 1.0000000000000000e+01
-1.0000000000000000e+01 1.0000000000000000e+01
-1.0000000000000000e+01 1.0000000000000000e+01
ITEM: ATOMS id type xs ys zs
3 1 0.722309 0.314424 0.320819
2 1 0.738019 0.36176 0.327241
1 1 0.787368 0.363113 0.301046
4 1 0.723573 0.312461 0.373104
5 1 0.749587 0.343317 0.39946
6 1 0.792314 0.378777 0.398412
7 1 0.768155 0.419367 0.436338
10 1 0.863408 0.387238 0.488904
8 1 0.758803 0.397933 0.477405
9 1 0.812423 0.368121 0.482353
ITEM: TIMESTEP
49000
ITEM: NUMBER OF ATOMS
10
ITEM: BOX BOUNDS pp pp pp
-1.0000000000000000e+01 1.0000000000000000e+01
-1.0000000000000000e+01 1.0000000000000000e+01
-1.0000000000000000e+01 1.0000000000000000e+01
ITEM: ATOMS id type xs ys zs
3 1 0.721747 0.315915 0.327633
2 1 0.750175 0.364515 0.33263
1 1 0.786839 0.36634 0.299068
4 1 0.72149 0.301425 0.381712
5 1 0.754759 0.344738 0.395769
6 1 0.776491 0.390542 0.392095
7 1 0.774873 0.422911 0.426211
9 1 0.806628 0.363667 0.481863
10 1 0.85362 0.385226 0.48874
8 1 0.769336 0.39123 0.47936
ITEM: TIMESTEP
50000
ITEM: NUMBER OF ATOMS
10
ITEM: BOX BOUNDS pp pp pp
-1.0000000000000000e+01 1.0000000000000000e+01
-1.0000000000000000e+01 1.0000000000000000e+01
-1.0000000000000000e+01 1.0000000000000000e+01
ITEM: ATOMS id type xs ys zs
3 1 0.723593 0.32002 0.339795
1 1 0.791864 0.369566 0.29372
4 1 0.721717 0.294766 0.386378
2 1 0.753984 0.36242 0.339857
6 1 0.765806 0.399264 0.380358
5 1 0.753267 0.34024 0.39078
7 1 0.779991 0.42661 0.434851
9 1 0.805601 0.349934 0.481592
10 1 0.848147 0.38504 0.489181
8 1 0.77199 0.39865 0.46857
ITEM: TIMESTEP
51000
ITEM: NUMBER OF ATOMS
10
ITEM: BOX BOUNDS pp pp pp
-1.0000000000000000e+01 1.0000000000000000e+01
-1.0000000000000000e+01 1.0000000000000000e+01
-1.0000000000000000e+01 1.0000000000000000e+01
ITEM: ATOMS id type xs ys zs
3 1 0.723142 0.323001 0.348409
1 1 0.790919 0.37261 0.295502
4 1 0.726631 0.294709 0.39255
2 1 0.761853 0.356607 0.327138
6 1 0.756442 0.400392 0.393045
5 1 0.753559 0.348265 0.389463
7 1 0.783941 0.431875 0.420284
9 1 0.802267 0.347357 0.479459
10 1 0.839696 0.382364 0.489078
8 1 0.777509 0.389329 0.470153
ITEM: TIMESTEP
52000
ITEM: NUMBER OF ATOMS
10
ITEM: BOX BOUNDS pp pp pp
-1.0000000000000000e+01 1.0000000000000000e+01
-1.0000000000000000e+01 1.0000000000000000e+01
-1.0000000000000000e+01 1.0000000000000000e+01
ITEM: ATOMS id type xs ys zs
2 1 0.760801 0.346699 0.324472
1 1 0.798758 0.379363 0.287297
3 1 0.718102 0.32338 0.348534
4 1 0.737936 0.305418 0.399725
5 1 0.752615 0.347576 0.394954
6 1 0.743177 0.398833 0.403891
7 1 0.789128 0.426382 0.425192
9 1 0.798127 0.341647 0.476834
10 1 0.833057 0.381486 0.489505
8 1 0.784257 0.395725 0.454677
ITEM: TIMESTEP
53000
ITEM: NUMBER OF ATOMS
10
ITEM: BOX BOUNDS pp pp pp
-1.0000000000000000e+01 1.0000000000000000e+01
-1.0000000000000000e+01 1.0000000000000000e+01
-1.0000000000000000e+01 1.0000000000000000e+01
ITEM: ATOMS id type xs ys zs
2 1 0.764433 0.343282 0.315725
1 1 0.795541 0.376714 0.289946
3 1 0.722905 0.323203 0.353137
4 1 0.739691 0.30225 0.399554
5 1 0.75845 0.359873 0.397767
6 1 0.737928 0.406266 0.418061
7 1 0.787673 0.429753 0.414752
9 1 0.792258 0.342464 0.472136
10 1 0.830683 0.379478 0.493609
8 1 0.786395 0.383225 0.450394
ITEM: TIMESTEP
54000
ITEM: NUMBER OF ATOMS
10
ITEM: BOX BOUNDS pp pp pp
-1.0000000000000000e+01 1.0000000000000000e+01
-1.0000000000000000e+01 1.0000000000000000e+01
-1.0000000000000000e+01 1.0000000000000000e+01
ITEM: ATOMS id type xs ys zs
2 1 0.759406 0.335793 0.311718
1 1 0.791441 0.373231 0.29333