LAMMPS (7 Feb 2024 - Development - patch_21Nov2023-1053-gc1f8e1d572-modified)
Reading data file ...
  orthogonal box = (-10 -10 -10) to (10 10 10)
  1 by 1 by 2 MPI processor grid
  reading atoms ...
  10 atoms
  reading velocities ...
  10 velocities
  scanning bonds ...
  1 = max bonds/atom
  reading bonds ...
  9 bonds
Finding 1-2 1-3 1-4 neighbors ...
  special bond factors lj:    0        0        0       
  special bond factors coul:  0        0        0       
     2 = max # of 1-2 neighbors
     2 = max # of 1-3 neighbors
     4 = max # of 1-4 neighbors
     6 = max # of special neighbors
  special bonds CPU = 0.000 seconds
  read_data CPU = 0.001 seconds
10 atoms in group all
10 atoms in group polymer
Finding 1-2 1-3 1-4 neighbors ...
  special bond factors lj:    0        1        1       
  special bond factors coul:  0        0        0       
     2 = max # of 1-2 neighbors
     2 = max # of 1-3 neighbors
     4 = max # of 1-4 neighbors
     6 = max # of special neighbors
  special bonds CPU = 0.000 seconds
Balancing ...
Generated 0 of 0 mixed pair_coeff terms from geometric mixing rule
Neighbor list info ...
  update: every = 1 steps, delay = 0 steps, check = yes
  max neighbors/atom: 2000, page size: 100000
  master list distance cutoff = 2.1224615
  ghost atom cutoff = 6
  binsize = 1.0612308, bins = 19 19 19
  1 neighbor lists, perpetual/occasional/extra = 1 0 0
  (1) pair lj/cut, perpetual
      attributes: half, newton on
      pair build: half/bin/newton
      stencil: half/bin/3d
      bin: standard
 rebalancing time: 0.000 seconds
  iteration count = 0
  initial/final maximal load/proc = 7 5
  initial/final imbalance factor  = 1.4 1
Generated 0 of 0 mixed pair_coeff terms from geometric mixing rule
Setting up Verlet run ...
  Unit style    : lj
  Current step  : 0
  Time step     : 0.001
0  ekin = 0 | epot = 0.444199844494727 | etot = 0.444199844494727
Per MPI rank memory allocation (min/avg/max) = 4.408 | 4.416 | 4.424 Mbytes
   Step          Temp          E_pair         E_mol          TotEng         Press     
         0   0              0              0.044419984    0.044419984   -0.00014369881
1000  ekin = 0.264877117877318 | epot = 0.17932243406889 | etot = 0.444199551946209
2000  ekin = 0.322356067899819 | epot = 0.121843285276403 | etot = 0.444199353176223
3000  ekin = 0.353256953757797 | epot = 0.0909424272014025 | etot = 0.444199380959199
4000  ekin = 0.243419972870736 | epot = 0.200779573881783 | etot = 0.44419954675252
5000  ekin = 0.306454167232734 | epot = 0.137745362249439 | etot = 0.444199529482173
6000  ekin = 0.263753998732679 | epot = 0.180445598512389 | etot = 0.444199597245069
7000  ekin = 0.226582679606582 | epot = 0.217616888130839 | etot = 0.444199567737421
8000  ekin = 0.32728775007037 | epot = 0.116911731911567 | etot = 0.444199481981937
9000  ekin = 0.27966490393126 | epot = 0.164534635764314 | etot = 0.444199539695574
10000  ekin = 0.306880894340287 | epot = 0.137318560374086 | etot = 0.444199454714373
11000  ekin = 0.346907372917339 | epot = 0.097291738460203 | etot = 0.444199111377542
12000  ekin = 0.261306790957579 | epot = 0.182892378254976 | etot = 0.444199169212555
13000  ekin = 0.333700323449542 | epot = 0.110498252581979 | etot = 0.444198576031521
14000  ekin = 0.316055120673958 | epot = 0.128143441365535 | etot = 0.444198562039493
15000  ekin = 0.251031857142323 | epot = 0.193166779218792 | etot = 0.444198636361116
16000  ekin = 0.289125850198925 | epot = 0.155073746591633 | etot = 0.444199596790558
17000  ekin = 0.29715135375037 | epot = 0.147048542360733 | etot = 0.444199896111103
18000  ekin = 0.212337441765276 | epot = 0.231862615394147 | etot = 0.444200057159424
19000  ekin = 0.207723279652867 | epot = 0.23647679030058 | etot = 0.444200069953447
20000  ekin = 0.223249292347412 | epot = 0.220949700976746 | etot = 0.444198993324159
21000  ekin = 0.286797246544064 | epot = 0.157402873675506 | etot = 0.44420012021957
22000  ekin = 0.354001893925149 | epot = 0.0901980858228847 | etot = 0.444199979748034
23000  ekin = 0.259265901456693 | epot = 0.184933588769734 | etot = 0.444199490226428
24000  ekin = 0.388838343696279 | epot = 0.055361081293128 | etot = 0.444199424989407
25000  ekin = 0.409610057319841 | epot = 0.0345893215225847 | etot = 0.444199378842426
26000  ekin = 0.281536260344425 | epot = 0.162663702141938 | etot = 0.444199962486363
27000  ekin = 0.24767418803125 | epot = 0.196525835369017 | etot = 0.444200023400268
28000  ekin = 0.285633682341994 | epot = 0.15856605495304 | etot = 0.444199737295034
29000  ekin = 0.321717334431378 | epot = 0.122483087622159 | etot = 0.444200422053537
30000  ekin = 0.321366009220668 | epot = 0.122833680356669 | etot = 0.444199689577337
31000  ekin = 0.391105540350787 | epot = 0.0530933189772525 | etot = 0.44419885932804
32000  ekin = 0.34687742713053 | epot = 0.0973224630404131 | etot = 0.444199890170943
33000  ekin = 0.337088437403943 | epot = 0.107111495194316 | etot = 0.444199932598259
34000  ekin = 0.416689042925587 | epot = 0.0275108112754533 | etot = 0.44419985420104
35000  ekin = 0.368304201632043 | epot = 0.0758957089634362 | etot = 0.44419991059548
36000  ekin = 0.376607252150442 | epot = 0.0675926752629542 | etot = 0.444199927413397
37000  ekin = 0.329810781125952 | epot = 0.114389175066824 | etot = 0.444199956192776
38000  ekin = 0.337485297088478 | epot = 0.106714719160605 | etot = 0.444200016249083
39000  ekin = 0.315257998035683 | epot = 0.128942040277683 | etot = 0.444200038313366
40000  ekin = 0.237090658738818 | epot = 0.207109459203035 | etot = 0.444200117941853
41000  ekin = 0.333893197578276 | epot = 0.11030691863989 | etot = 0.444200116218166
42000  ekin = 0.319758107874808 | epot = 0.124441429327251 | etot = 0.444199537202059
43000  ekin = 0.328657333957538 | epot = 0.115542359493135 | etot = 0.444199693450674
44000  ekin = 0.361094405277859 | epot = 0.0831053090652874 | etot = 0.444199714343146
45000  ekin = 0.318931093864436 | epot = 0.125268394498765 | etot = 0.444199488363201
46000  ekin = 0.340423624005333 | epot = 0.103775942069504 | etot = 0.444199566074837
47000  ekin = 0.319932163900764 | epot = 0.124267418240188 | etot = 0.444199582140952
48000  ekin = 0.297416515312777 | epot = 0.14678311448242 | etot = 0.444199629795197
49000  ekin = 0.288403169559205 | epot = 0.155796517275267 | etot = 0.444199686834472
50000  ekin = 0.209798137073443 | epot = 0.234400899222122 | etot = 0.444199036295565
51000  ekin = 0.230721128980094 | epot = 0.213478648088516 | etot = 0.44419977706861
52000  ekin = 0.191420637005145 | epot = 0.252779135319329 | etot = 0.444199772324474
53000  ekin = 0.319738507186588 | epot = 0.124460867064421 | etot = 0.44419937425101
54000  ekin = 0.292176426632093 | epot = 0.152023648754024 | etot = 0.444200075386117
55000  ekin = 0.298837980015132 | epot = 0.145362091570532 | etot = 0.444200071585664
56000  ekin = 0.313101013873163 | epot = 0.131099078370624 | etot = 0.444200092243787
57000  ekin = 0.244400043971787 | epot = 0.199801295850385 | etot = 0.444201339822172
58000  ekin = 0.221182002528891 | epot = 0.223019294836335 | etot = 0.444201297365226
59000  ekin = 0.276084471751744 | epot = 0.168116754072436 | etot = 0.444201225824181
60000  ekin = 0.264374726267999 | epot = 0.179826479293874 | etot = 0.444201205561873
61000  ekin = 0.261514444691022 | epot = 0.182686757833713 | etot = 0.444201202524735
62000  ekin = 0.271227410228622 | epot = 0.172973441104052 | etot = 0.444200851332674
63000  ekin = 0.34070998779756 | epot = 0.103491411054073 | etot = 0.444201398851633
64000  ekin = 0.345219770444147 | epot = 0.0989816184138425 | etot = 0.44420138885799
65000  ekin = 0.36113649699849 | epot = 0.0830649897831705 | etot = 0.44420148678166
66000  ekin = 0.331878279382066 | epot = 0.112323948096191 | etot = 0.444202227478257
67000  ekin = 0.291409764256571 | epot = 0.152792772868021 | etot = 0.444202537124592
68000  ekin = 0.275394337894194 | epot = 0.16880823539528 | etot = 0.444202573289474
69000  ekin = 0.350099641737816 | epot = 0.09410281022545 | etot = 0.444202451963266
70000  ekin = 0.398969021887273 | epot = 0.0452333815498096 | etot = 0.444202403437083
71000  ekin = 0.323905630281939 | epot = 0.12029685175169 | etot = 0.44420248203363
72000  ekin = 0.34051718745048 | epot = 0.103686706305401 | etot = 0.44420389375588
73000  ekin = 0.310133547488141 | epot = 0.134070901846556 | etot = 0.444204449334697
74000  ekin = 0.330727873483321 | epot = 0.113476617696602 | etot = 0.444204491179922
75000  ekin = 0.330122683953386 | epot = 0.114081822562393 | etot = 0.444204506515779
76000  ekin = 0.355901947406879 | epot = 0.0883026748110942 | etot = 0.444204622217973
77000  ekin = 0.313517092587174 | epot = 0.130687833833614 | etot = 0.444204926420789
78000  ekin = 0.362037125038623 | epot = 0.0821672130646483 | etot = 0.444204338103271
79000  ekin = 0.346591771926839 | epot = 0.0976139623648451 | etot = 0.444205734291684
80000  ekin = 0.342854775410681 | epot = 0.101350823415855 | etot = 0.444205598826536
81000  ekin = 0.287531901103079 | epot = 0.156674545697388 | etot = 0.444206446800467
82000  ekin = 0.326725778611481 | epot = 0.117480641913827 | etot = 0.444206420525308
83000  ekin = 0.359226795257851 | epot = 0.0849797708008855 | etot = 0.444206566058736
84000  ekin = 0.257098741330997 | epot = 0.187107893828515 | etot = 0.444206635159512
85000  ekin = 0.31904219404078 | epot = 0.125164454944461 | etot = 0.444206648985241
86000  ekin = 0.320921523605733 | epot = 0.123285130273641 | etot = 0.444206653879373
87000  ekin = 0.32274305465463 | epot = 0.121463936683384 | etot = 0.444206991338014
88000  ekin = 0.327476566567938 | epot = 0.116730404212455 | etot = 0.444206970780392
89000  ekin = 0.301157288475018 | epot = 0.143049675386278 | etot = 0.444206963861296
90000  ekin = 0.348035385902605 | epot = 0.096171341692765 | etot = 0.44420672759537
91000  ekin = 0.346557768038718 | epot = 0.0976498109355272 | etot = 0.444207578974246
92000  ekin = 0.350586367379186 | epot = 0.0936222152532333 | etot = 0.444208582632419
93000  ekin = 0.287733469032094 | epot = 0.156475428323913 | etot = 0.444208897356006
94000  ekin = 0.350214683695027 | epot = 0.0939941707187962 | etot = 0.444208854413824
95000  ekin = 0.346383546156015 | epot = 0.0978252767961152 | etot = 0.44420882295213
96000  ekin = 0.336921665203996 | epot = 0.107287095834507 | etot = 0.444208761038503
97000  ekin = 0.358598632337299 | epot = 0.085610093885571 | etot = 0.44420872622287
98000  ekin = 0.333253262461531 | epot = 0.110955458683295 | etot = 0.444208721144827
99000  ekin = 0.299841344190283 | epot = 0.144367382341275 | etot = 0.444208726531558
100000  ekin = 0.3309688715465 | epot = 0.113240151027333 | etot = 0.444209022573833
101000  ekin = 0.317579597589559 | epot = 0.126629363821864 | etot = 0.444208961411423
102000  ekin = 0.337548273959734 | epot = 0.106660626442977 | etot = 0.444208900402711
103000  ekin = 0.320510724707017 | epot = 0.123698208841418 | etot = 0.444208933548435
104000  ekin = 0.312086339424116 | epot = 0.132122600256422 | etot = 0.444208939680538
105000  ekin = 0.319972701735768 | epot = 0.124236238878889 | etot = 0.444208940614657
106000  ekin = 0.340707205801772 | epot = 0.103501726429636 | etot = 0.444208932231408
107000  ekin = 0.294355331911253 | epot = 0.149853772989916 | etot = 0.444209104901169
108000  ekin = 0.306816525023699 | epot = 0.137392605558657 | etot = 0.444209130582356
109000  ekin = 0.247300478914638 | epot = 0.196908645309473 | etot = 0.444209124224111
110000  ekin = 0.289878641153778 | epot = 0.154330307643254 | etot = 0.444208948797032
111000  ekin = 0.267602660410054 | epot = 0.176606238869411 | etot = 0.444208899279466
112000  ekin = 0.26697805397076 | epot = 0.17723065057565 | etot = 0.444208704546409
113000  ekin = 0.313183604837554 | epot = 0.131025004940985 | etot = 0.44420860977854
114000  ekin = 0.350504880912141 | epot = 0.0937036601459186 | etot = 0.44420854105806
115000  ekin = 0.352632465671066 | epot = 0.0915760498098341 | etot = 0.4442085154809
116000  ekin = 0.288780169880917 | epot = 0.15542833220714 | etot = 0.444208502088058
117000  ekin = 0.328458616628717 | epot = 0.115749829757527 | etot = 0.444208446386244
118000  ekin = 0.365855445741353 | epot = 0.0783533704628009 | etot = 0.444208816204154
119000  ekin = 0.354510626472887 | epot = 0.0896982725535868 | etot = 0.444208899026474
120000  ekin = 0.264472197786806 | epot = 0.179736850506821 | etot = 0.444209048293627
121000  ekin = 0.223880393680792 | epot = 0.220328903411984 | etot = 0.444209297092776
122000  ekin = 0.265953159639047 | epot = 0.178255213064761 | etot = 0.444208372703808
123000  ekin = 0.340339105871441 | epot = 0.103870225767557 | etot = 0.444209331638997
124000  ekin = 0.382286743263479 | epot = 0.061922515422805 | etot = 0.444209258686284
125000  ekin = 0.362132627726781 | epot = 0.0820766314856922 | etot = 0.444209259212473
126000  ekin = 0.347368357899907 | epot = 0.096840906592342 | etot = 0.444209264492249
127000  ekin = 0.29776559923074 | epot = 0.146443823678732 | etot = 0.444209422909472
128000  ekin = 0.385569548489315 | epot = 0.0586397510973179 | etot = 0.444209299586633
129000  ekin = 0.346972960861762 | epot = 0.0972365635062439 | etot = 0.444209524368006
130000  ekin = 0.325873348523379 | epot = 0.118336195524336 | etot = 0.444209544047715
131000  ekin = 0.374738903112534 | epot = 0.0694705774193725 | etot = 0.444209480531906
132000  ekin = 0.324713183597831 | epot = 0.119496324115822 | etot = 0.444209507713653
133000  ekin = 0.383533325881288 | epot = 0.0606762364930695 | etot = 0.444209562374357
134000  ekin = 0.343594630313264 | epot = 0.100614945298043 | etot = 0.444209575611307
135000  ekin = 0.390138111548401 | epot = 0.0540710784348959 | etot = 0.444209189983297
136000  ekin = 0.406327931524715 | epot = 0.0378813128226434 | etot = 0.444209244347359
137000  ekin = 0.381654754865486 | epot = 0.0625545227577698 | etot = 0.444209277623256
138000  ekin = 0.315895135484687 | epot = 0.128314754798302 | etot = 0.444209890282988
139000  ekin = 0.34076427057043 | epot = 0.103442989108679 | etot = 0.444207259679109
140000  ekin = 0.402051407131 | epot = 0.0421560002882773 | etot = 0.444207407419277
141000  ekin = 0.345105550626555 | epot = 0.0991020601953712 | etot = 0.444207610821926
142000  ekin = 0.400691525857806 | epot = 0.0435159062073996 | etot = 0.444207432065205
143000  ekin = 0.357349156171346 | epot = 0.0868581912785072 | etot = 0.444207347449854
144000  ekin = 0.390687175634662 | epot = 0.0535202179887788 | etot = 0.444207393623441
145000  ekin = 0.361041234595634 | epot = 0.0831661833533624 | etot = 0.444207417948996
146000  ekin = 0.346433490733842 | epot = 0.0977734349499698 | etot = 0.444206925683812
147000  ekin = 0.388041540575341 | epot = 0.0561653985667681 | etot = 0.444206939142109
148000  ekin = 0.329509186086976 | epot = 0.114697765750444 | etot = 0.44420695183742
149000  ekin = 0.366340842757494 | epot = 0.0778661054312587 | etot = 0.444206948188753
150000  ekin = 0.271175489387701 | epot = 0.173031502641633 | etot = 0.444206992029334
151000  ekin = 0.363938161053687 | epot = 0.0802687641113665 | etot = 0.444206925165054
152000  ekin = 0.308625980594344 | epot = 0.135580927617046 | etot = 0.44420690821139
153000  ekin = 0.345004362054631 | epot = 0.0992025580752469 | etot = 0.444206920129878
154000  ekin = 0.292043229403104 | epot = 0.152163718026516 | etot = 0.44420694742962
155000  ekin = 0.364003461382397 | epot = 0.0802034583995755 | etot = 0.444206919781972
156000  ekin = 0.293743541973512 | epot = 0.150463371132673 | etot = 0.444206913106185
157000  ekin = 0.401095549661011 | epot = 0.0431113312397417 | etot = 0.444206880900752
158000  ekin = 0.321260673418052 | epot = 0.122946203266148 | etot = 0.4442068766842
159000  ekin = 0.325605043950441 | epot = 0.118601723663046 | etot = 0.444206767613486
160000  ekin = 0.296887098852521 | epot = 0.147319703268713 | etot = 0.444206802121234
161000  ekin = 0.324350180340285 | epot = 0.119856639040504 | etot = 0.444206819380789
162000  ekin = 0.342829542528583 | epot = 0.101376665570596 | etot = 0.444206208099179
163000  ekin = 0.355031474801466 | epot = 0.0891743535317167 | etot = 0.444205828333182
164000  ekin = 0.347667261757146 | epot = 0.0965385302107704 | etot = 0.444205791967916
165000  ekin = 0.367826629494108 | epot = 0.0763773031302753 | etot = 0.444203932624384
166000  ekin = 0.355859914139527 | epot = 0.0883459062533784 | etot = 0.444205820392906
167000  ekin = 0.252306721007709 | epot = 0.191900572094562 | etot = 0.444207293102271
168000  ekin = 0.315345570871523 | epot = 0.128860690608578 | etot = 0.444206261480101
169000  ekin = 0.257427528058625 | epot = 0.186778646505168 | etot = 0.444206174563793
170000  ekin = 0.375559135736425 | epot = 0.0686469434343777 | etot = 0.444206079170802
171000  ekin = 0.418663207168175 | epot = 0.0255428053256011 | etot = 0.444206012493776
172000  ekin = 0.336083508572959 | epot = 0.108122532778076 | etot = 0.444206041351035
173000  ekin = 0.313789978620504 | epot = 0.130416224822016 | etot = 0.444206203442521
174000  ekin = 0.339499251057679 | epot = 0.104706955645228 | etot = 0.444206206702907
175000  ekin = 0.287839348835276 | epot = 0.156366862254348 | etot = 0.444206211089625
176000  ekin = 0.259333006619375 | epot = 0.184873264226776 | etot = 0.444206270846151
177000  ekin = 0.318701538689972 | epot = 0.125504811535149 | etot = 0.444206350225121
178000  ekin = 0.357377701030322 | epot = 0.0868280639719545 | etot = 0.444205765002276
179000  ekin = 0.384589426918598 | epot = 0.0596191565685382 | etot = 0.444208583487136
180000  ekin = 0.399918926321823 | epot = 0.0442895187399941 | etot = 0.444208445061817
181000  ekin = 0.372798365275024 | epot = 0.0714101316259705 | etot = 0.444208496900995
182000  ekin = 0.331685604486605 | epot = 0.112523117420492 | etot = 0.444208721907097
183000  ekin = 0.361785045766273 | epot = 0.0824235295385127 | etot = 0.444208575304786
184000  ekin = 0.327659524640551 | epot = 0.116549083011021 | etot = 0.444208607651573
185000  ekin = 0.30023934177785 | epot = 0.143969349261514 | etot = 0.444208691039365
186000  ekin = 0.280652428833256 | epot = 0.163555981219571 | etot = 0.444208410052828
187000  ekin = 0.310723124478478 | epot = 0.133485262908799 | etot = 0.444208387387277
188000  ekin = 0.274189018745783 | epot = 0.170019358172336 | etot = 0.44420837691812
189000  ekin = 0.349980386083678 | epot = 0.0942279571483429 | etot = 0.444208343232021
190000  ekin = 0.30930712092253 | epot = 0.134901192149464 | etot = 0.444208313071994
191000  ekin = 0.389608127260818 | epot = 0.0546001204691215 | etot = 0.44420824772994
192000  ekin = 0.407163078141381 | epot = 0.0370451321814902 | etot = 0.444208210322871
193000  ekin = 0.388102290224566 | epot = 0.0561059575514069 | etot = 0.444208247775973
194000  ekin = 0.374790682962276 | epot = 0.0694175931257794 | etot = 0.444208276088055
195000  ekin = 0.343674995615563 | epot = 0.100533343405128 | etot = 0.444208339020691
196000  ekin = 0.299996234937294 | epot = 0.144212139450267 | etot = 0.444208374387561
197000  ekin = 0.325044674597489 | epot = 0.119163724942329 | etot = 0.444208399539819
198000  ekin = 0.332185505198592 | epot = 0.112022944979825 | etot = 0.444208450178416
199000  ekin = 0.233990536236922 | epot = 0.210218535647524 | etot = 0.444209071884446
200000  ekin = 0.267244063726274 | epot = 0.176964608054462 | etot = 0.444208671780736
201000  ekin = 0.320239555309391 | epot = 0.123969214104584 | etot = 0.444208769413976
202000  ekin = 0.361715916669403 | epot = 0.0824927711072346 | etot = 0.444208687776637
203000  ekin = 0.348192896173668 | epot = 0.0960157981233766 | etot = 0.444208694297045
204000  ekin = 0.268674272952345 | epot = 0.175534546958564 | etot = 0.444208819910909
205000  ekin = 0.223820427106453 | epot = 0.2203897780887 | etot = 0.444210205195153
206000  ekin = 0.313830407700481 | epot = 0.13037922554482 | etot = 0.444209633245301
207000  ekin = 0.252726553301819 | epot = 0.191483015507345 | etot = 0.444209568809163
208000  ekin = 0.304530078443743 | epot = 0.139679233930151 | etot = 0.444209312373894
209000  ekin = 0.271002783761232 | epot = 0.173206763850204 | etot = 0.444209547611436
210000  ekin = 0.278957038347279 | epot = 0.165252569868183 | etot = 0.444209608215462
211000  ekin = 0.218009644256961 | epot = 0.226199992744645 | etot = 0.444209637001606
212000  ekin = 0.198862377804158 | epot = 0.24534729483608 | etot = 0.444209672640239
213000  ekin = 0.251672963806263 | epot = 0.192536912845017 | etot = 0.44420987665128
214000  ekin = 0.248206703843553 | epot = 0.196003066387557 | etot = 0.44420977023111
215000  ekin = 0.295751305755478 | epot = 0.148458399263733 | etot = 0.444209705019211
216000  ekin = 0.355057169089001 | epot = 0.0891524555150183 | etot = 0.444209624604019
217000  ekin = 0.36200846869674 | epot = 0.0822007532134247 | etot = 0.444209221910164
218000  ekin = 0.259748230187385 | epot = 0.184461065539119 | etot = 0.444209295726503
219000  ekin = 0.333328899515199 | epot = 0.110880377725774 | etot = 0.444209277240973
220000  ekin = 0.339823039433716 | epot = 0.104386222590054 | etot = 0.44420926202377
221000  ekin = 0.374866288727794 | epot = 0.0693428945726222 | etot = 0.444209183300416
222000  ekin = 0.359499073731087 | epot = 0.0847101731146348 | etot = 0.444209246845721
223000  ekin = 0.256175099469165 | epot = 0.188034306390659 | etot = 0.444209405859824
224000  ekin = 0.308960702048212 | epot = 0.135247164697734 | etot = 0.444207866745946
225000  ekin = 0.268126249329183 | epot = 0.176082963789493 | etot = 0.444209213118676
226000  ekin = 0.37525848130518 | epot = 0.068950663992996 | etot = 0.444209145298176
227000  ekin = 0.34717170069685 | epot = 0.0970374851271737 | etot = 0.444209185824023
228000  ekin = 0.324927898878293 | epot = 0.119281396148343 | etot = 0.444209295026636
229000  ekin = 0.403957545114254 | epot = 0.040251329706649 | etot = 0.444208874820903
230000  ekin = 0.305931661042864 | epot = 0.138276470566439 | etot = 0.444208131609302
231000  ekin = 0.267799362533071 | epot = 0.17641020383871 | etot = 0.444209566371781
232000  ekin = 0.30099234602391 | epot = 0.143217211488512 | etot = 0.444209557512422
233000  ekin = 0.359435408313339 | epot = 0.0847722396193948 | etot = 0.444207647932734
234000  ekin = 0.337497204758338 | epot = 0.106712787357368 | etot = 0.444209992115706
235000  ekin = 0.318868377179972 | epot = 0.125341658763831 | etot = 0.444210035943802
236000  ekin = 0.299308941277122 | epot = 0.144901103254346 | etot = 0.444210044531469
237000  ekin = 0.364790179859796 | epot = 0.0794191018369497 | etot = 0.444209281696745
238000  ekin = 0.406683170804043 | epot = 0.0375260890555859 | etot = 0.444209259859629
239000  ekin = 0.389425506233472 | epot = 0.0547837342191673 | etot = 0.44420924045264
240000  ekin = 0.360484040314523 | epot = 0.0837265375743655 | etot = 0.444210577888889
241000  ekin = 0.384667127846562 | epot = 0.0595434712175571 | etot = 0.444210599064119
242000  ekin = 0.252893202515966 | epot = 0.191317385113822 | etot = 0.444210587629788
243000  ekin = 0.401419832374286 | epot = 0.0427902616363631 | etot = 0.444210094010649
244000  ekin = 0.359634855353585 | epot = 0.0845752643072233 | etot = 0.444210119660808
245000  ekin = 0.307439122045212 | epot = 0.136771634752932 | etot = 0.444210756798144
246000  ekin = 0.33680826594339 | epot = 0.107402541637222 | etot = 0.444210807580613
247000  ekin = 0.2944585632068 | epot = 0.149752187733617 | etot = 0.444210750940416
248000  ekin = 0.397922008392363 | epot = 0.0462886821688362 | etot = 0.444210690561199
249000  ekin = 0.381725479025233 | epot = 0.0624852428172256 | etot = 0.444210721842459
250000  ekin = 0.322067169089598 | epot = 0.122143520883171 | etot = 0.444210689972769
    250000   0.023856827    0              0.012214352    0.044421069   -9.4229913e-05
Loop time of 0.412708 on 2 procs for 250000 steps with 10 atoms

Performance: 52337219.644 tau/day, 605754.857 timesteps/s, 6.058 Matom-step/s
99.7% CPU use with 2 MPI tasks x no OpenMP threads

MPI task timing breakdown:
Section |  min time  |  avg time  |  max time  |%varavg| %total
---------------------------------------------------------------
Pair    | 0.013009   | 0.013911   | 0.014813   |   0.8 |  3.37
Bond    | 0.025274   | 0.028109   | 0.030944   |   1.7 |  6.81
Neigh   | 0.00136    | 0.001366   | 0.0013719  |   0.0 |  0.33
Comm    | 0.2536     | 0.25941    | 0.26521    |   1.1 | 62.85
Output  | 0.0023739  | 0.002616   | 0.002858   |   0.5 |  0.63
Modify  | 0.027351   | 0.028628   | 0.029906   |   0.8 |  6.94
Other   |            | 0.07867    |            |       | 19.06

Nlocal:              5 ave           6 max           4 min
Histogram: 1 0 0 0 0 0 0 0 0 1
Nghost:             12 ave          13 max          11 min
Histogram: 1 0 0 0 0 0 0 0 0 1
Neighs:              4 ave           4 max           4 min
Histogram: 2 0 0 0 0 0 0 0 0 0

Total # of neighbors = 8
Ave neighs/atom = 0.8
Ave special neighs/atom = 4.8
Neighbor list builds = 160
Dangerous builds = 0
System init for write_data ...
Generated 0 of 0 mixed pair_coeff terms from geometric mixing rule
Total wall time: 0:00:00
