LAMMPS (17 Apr 2024)
KOKKOS mode with Kokkos version 4.3.0 is enabled (../kokkos.cpp:72)
  will use up to 1 GPU(s) per node
Reading data file ...
  orthogonal box = (-10 -10 -10) to (10 10 10)
  1 by 1 by 1 MPI processor grid
  reading atoms ...
  10 atoms
  reading velocities ...
  10 velocities
  scanning bonds ...
  2 = max bonds/atom
  orthogonal box = (-10 -10 -10) to (10 10 10)
  1 by 1 by 1 MPI processor grid
  reading bonds ...
  9 bonds
Finding 1-2 1-3 1-4 neighbors ...
  special bond factors lj:    0        0        0       
  special bond factors coul:  0        0        0       
     2 = max # of 1-2 neighbors
     2 = max # of 1-3 neighbors
     4 = max # of 1-4 neighbors
     6 = max # of special neighbors
  special bonds CPU = 0.001 seconds
  read_data CPU = 0.008 seconds
10 atoms in group all
10 atoms in group polymer
Finding 1-2 1-3 1-4 neighbors ...
  special bond factors lj:    0        1        1       
  special bond factors coul:  0        0        0       
     2 = max # of 1-2 neighbors
     2 = max # of 1-3 neighbors
     4 = max # of 1-4 neighbors
     6 = max # of special neighbors
  special bonds CPU = 0.001 seconds
Balancing ...
Generated 0 of 0 mixed pair_coeff terms from geometric mixing rule
Neighbor list info ...
  update: every = 1 steps, delay = 0 steps, check = yes
  max neighbors/atom: 2000, page size: 100000
  master list distance cutoff = 2.1224615
  ghost atom cutoff = 6
  binsize = 2.1224615, bins = 10 10 10
  1 neighbor lists, perpetual/occasional/extra = 1 0 0
  (1) pair lj/cut/kk, perpetual
      attributes: full, newton off, kokkos_device
      pair build: full/bin/kk/device
      stencil: full/bin/3d
      bin: kk/device
Generated 0 of 0 mixed pair_coeff terms from geometric mixing rule
Setting up Verlet run ...
  Unit style    : lj
  Current step  : 0
  Time step     : 0.001
0  ekin = 0 | epot = 0.444199844494727 | etot = 0.444199844494727
Per MPI rank memory allocation (min/avg/max) = 4.323 | 4.323 | 4.323 Mbytes
   Step          Temp          E_pair         E_mol          TotEng         Press     
         0   0              0              0.044419984    0.044419984   -0.00014369881
1000  ekin = 0.264877117877318 | epot = 0.17932243406889 | etot = 0.444199551946208
2000  ekin = 0.322356067899819 | epot = 0.121843285276403 | etot = 0.444199353176222
3000  ekin = 0.353256953757797 | epot = 0.0909424272014026 | etot = 0.444199380959199
4000  ekin = 0.243419972870736 | epot = 0.200779573881783 | etot = 0.444199546752519
5000  ekin = 0.306454167232734 | epot = 0.137745362249439 | etot = 0.444199529482173
6000  ekin = 0.26375399873268 | epot = 0.180445598512389 | etot = 0.444199597245069
7000  ekin = 0.226582679606582 | epot = 0.21761688813084 | etot = 0.444199567737422
8000  ekin = 0.327287750070371 | epot = 0.116911731911566 | etot = 0.444199481981937
9000  ekin = 0.279664903931262 | epot = 0.164534635764314 | etot = 0.444199539695576
10000  ekin = 0.306880894340287 | epot = 0.137318560374087 | etot = 0.444199454714374
11000  ekin = 0.34690737291734 | epot = 0.0972917384602026 | etot = 0.444199111377543
12000  ekin = 0.261306790957578 | epot = 0.182892378254979 | etot = 0.444199169212558
13000  ekin = 0.333700323449551 | epot = 0.110498252581985 | etot = 0.444198576031535
14000  ekin = 0.316055120673964 | epot = 0.128143441365543 | etot = 0.444198562039508
15000  ekin = 0.25103185714233 | epot = 0.193166779218803 | etot = 0.444198636361132
16000  ekin = 0.289125850198945 | epot = 0.155073746591648 | etot = 0.444199596790593
17000  ekin = 0.297151353750382 | epot = 0.147048542360756 | etot = 0.444199896111138
18000  ekin = 0.212337441765303 | epot = 0.231862615394155 | etot = 0.444200057159458
19000  ekin = 0.207723279652905 | epot = 0.236476790300575 | etot = 0.44420006995348
20000  ekin = 0.223249292347327 | epot = 0.220949700976853 | etot = 0.44419899332418
21000  ekin = 0.286797246544063 | epot = 0.157402873675522 | etot = 0.444200120219586
22000  ekin = 0.354001893925125 | epot = 0.0901980858229225 | etot = 0.444199979748048
23000  ekin = 0.25926590145661 | epot = 0.184933588769816 | etot = 0.444199490226427
24000  ekin = 0.388838343696506 | epot = 0.0553610812929137 | etot = 0.44419942498942
25000  ekin = 0.40961005731991 | epot = 0.0345893215225296 | etot = 0.444199378842439
26000  ekin = 0.281536260344392 | epot = 0.162663702141973 | etot = 0.444199962486365
27000  ekin = 0.247674188031088 | epot = 0.196525835369185 | etot = 0.444200023400273
28000  ekin = 0.285633682341825 | epot = 0.158566054953206 | etot = 0.444199737295032
29000  ekin = 0.321717334431173 | epot = 0.122483087622356 | etot = 0.444200422053529
30000  ekin = 0.321366009220154 | epot = 0.122833680357188 | etot = 0.444199689577341
31000  ekin = 0.391105540358243 | epot = 0.0530933189697598 | etot = 0.444198859328003
32000  ekin = 0.34687742713149 | epot = 0.0973224630394483 | etot = 0.444199890170938
33000  ekin = 0.337088437401058 | epot = 0.107111495197168 | etot = 0.444199932598227
34000  ekin = 0.416689042926165 | epot = 0.0275108112748537 | etot = 0.444199854201019
35000  ekin = 0.368304201626741 | epot = 0.0758957089687135 | etot = 0.444199910595455
36000  ekin = 0.376607252145681 | epot = 0.0675926752677002 | etot = 0.444199927413382
37000  ekin = 0.329810781127886 | epot = 0.114389175064852 | etot = 0.444199956192738
38000  ekin = 0.337485297082803 | epot = 0.106714719166236 | etot = 0.444200016249039
39000  ekin = 0.315257998038961 | epot = 0.12894204027435 | etot = 0.444200038313311
40000  ekin = 0.237090658739213 | epot = 0.207109459202589 | etot = 0.444200117941803
41000  ekin = 0.333893197575108 | epot = 0.110306918643007 | etot = 0.444200116218116
42000  ekin = 0.319758107892948 | epot = 0.124441429309284 | etot = 0.444199537202232
43000  ekin = 0.328657333960255 | epot = 0.115542359490305 | etot = 0.44419969345056
44000  ekin = 0.361094405285655 | epot = 0.0831053090573693 | etot = 0.444199714343024
45000  ekin = 0.318931093879045 | epot = 0.125268394484734 | etot = 0.444199488363779
46000  ekin = 0.340423623986604 | epot = 0.103775942089123 | etot = 0.444199566075726
47000  ekin = 0.319932163894218 | epot = 0.124267418247645 | etot = 0.444199582141863
48000  ekin = 0.297416515263512 | epot = 0.146783114532603 | etot = 0.444199629796115
49000  ekin = 0.288403169534515 | epot = 0.15579651730088 | etot = 0.444199686835395
50000  ekin = 0.209798137297466 | epot = 0.234400898998116 | etot = 0.444199036295582
51000  ekin = 0.230721129146435 | epot = 0.213478647923257 | etot = 0.444199777069692
52000  ekin = 0.191420636991862 | epot = 0.252779135333691 | etot = 0.444199772325553
53000  ekin = 0.319738507331307 | epot = 0.124460866921827 | etot = 0.444199374253133
54000  ekin = 0.292176426715536 | epot = 0.152023648672348 | etot = 0.444200075387884
55000  ekin = 0.298837980011097 | epot = 0.145362091576354 | etot = 0.44420007158745
56000  ekin = 0.313101013891914 | epot = 0.131099078353658 | etot = 0.444200092245572
57000  ekin = 0.244400044139809 | epot = 0.199801295661157 | etot = 0.444201339800967
58000  ekin = 0.221182002567556 | epot = 0.223019294776456 | etot = 0.444201297344013
59000  ekin = 0.276084470260138 | epot = 0.168116755542406 | etot = 0.444201225802545
60000  ekin = 0.264374724834835 | epot = 0.179826480705406 | etot = 0.444201205540241
61000  ekin = 0.261514443069035 | epot = 0.182686759434067 | etot = 0.444201202503102
62000  ekin = 0.271227405493602 | epot = 0.172973445781973 | etot = 0.444200851275575
63000  ekin = 0.340709989164621 | epot = 0.103491409644764 | etot = 0.444201398809385
64000  ekin = 0.34521976616956 | epot = 0.0989816226462087 | etot = 0.444201388815769
65000  ekin = 0.361136496693396 | epot = 0.0830649900842972 | etot = 0.444201486777693
66000  ekin = 0.33187830112374 | epot = 0.112323926107608 | etot = 0.444202227231347
67000  ekin = 0.29140976365789 | epot = 0.152792773110527 | etot = 0.444202536768417
68000  ekin = 0.275394329043531 | epot = 0.168808243878744 | etot = 0.444202572922275
69000  ekin = 0.350099643703309 | epot = 0.0941028078928336 | etot = 0.444202451596142
70000  ekin = 0.398969008407826 | epot = 0.0452333946621479 | etot = 0.444202403069974
71000  ekin = 0.323905626095323 | epot = 0.120296855571195 | etot = 0.444202481666518
72000  ekin = 0.340517191948243 | epot = 0.103686703352125 | etot = 0.444203895300368
73000  ekin = 0.310133537743907 | epot = 0.134070913038535 | etot = 0.444204450782442
74000  ekin = 0.330727891413746 | epot = 0.113476601321722 | etot = 0.444204492735467
75000  ekin = 0.330122670423049 | epot = 0.114081837648274 | etot = 0.444204508071323
76000  ekin = 0.355901952509474 | epot = 0.0883026714607524 | etot = 0.444204623970226
77000  ekin = 0.313517108699088 | epot = 0.13068781969929 | etot = 0.444204928398378
78000  ekin = 0.362037103331 | epot = 0.0821672370372811 | etot = 0.444204340368281
79000  ekin = 0.346591677134929 | epot = 0.0976140553420182 | etot = 0.444205732476947
80000  ekin = 0.342854738961497 | epot = 0.101350858281348 | etot = 0.444205597242845
81000  ekin = 0.287531946041292 | epot = 0.156674499584514 | etot = 0.444206445625806
82000  ekin = 0.326725891766046 | epot = 0.117480527584457 | etot = 0.444206419350503
83000  ekin = 0.359227024823915 | epot = 0.0849795370432909 | etot = 0.444206561867206
84000  ekin = 0.257098854424736 | epot = 0.187107776543528 | etot = 0.444206630968263
85000  ekin = 0.319042338776618 | epot = 0.125164306017467 | etot = 0.444206644794085
86000  ekin = 0.320921640049641 | epot = 0.123285009638643 | etot = 0.444206649688285
87000  ekin = 0.322743068402223 | epot = 0.121463920098377 | etot = 0.4442069885006
88000  ekin = 0.327476706912896 | epot = 0.116730261030115 | etot = 0.444206967943011
89000  ekin = 0.301157473477759 | epot = 0.143049487546273 | etot = 0.444206961024032
90000  ekin = 0.34803574497006 | epot = 0.09617098530884 | etot = 0.4442067302789
91000  ekin = 0.346558010478947 | epot = 0.0976495729884951 | etot = 0.444207583467442
92000  ekin = 0.350586343886824 | epot = 0.0936222854629977 | etot = 0.444208629349822
93000  ekin = 0.287734047567543 | epot = 0.156474876328654 | etot = 0.444208923896197
94000  ekin = 0.350214214428663 | epot = 0.0939946652885157 | etot = 0.444208879717179
95000  ekin = 0.346384202085742 | epot = 0.097824646169736 | etot = 0.444208848255478
96000  ekin = 0.336923690982513 | epot = 0.107285084110461 | etot = 0.444208775092974
97000  ekin = 0.358601838086103 | epot = 0.0856069021879872 | etot = 0.444208740274091
98000  ekin = 0.333255359055067 | epot = 0.110953381047053 | etot = 0.44420874010212
99000  ekin = 0.299836130382131 | epot = 0.14437260646402 | etot = 0.444208736846152
100000  ekin = 0.330957474391159 | epot = 0.113251687858167 | etot = 0.444209162249326
101000  ekin = 0.317570833184247 | epot = 0.126638267898493 | etot = 0.44420910108274
102000  ekin = 0.337541381702885 | epot = 0.106667658361597 | etot = 0.444209040064482
103000  ekin = 0.320513804192129 | epot = 0.12369526901059 | etot = 0.444209073202719
104000  ekin = 0.312087823612475 | epot = 0.132121255721183 | etot = 0.444209079333658
105000  ekin = 0.319977320471663 | epot = 0.124231759805975 | etot = 0.444209080277639
106000  ekin = 0.340704698317335 | epot = 0.103504373566713 | etot = 0.444209071884048
107000  ekin = 0.294361416517262 | epot = 0.149847860776125 | etot = 0.444209277293387
108000  ekin = 0.30679791804865 | epot = 0.1374113849582 | etot = 0.444209303006849
109000  ekin = 0.247286282485004 | epot = 0.196923120586279 | etot = 0.444209403071283
110000  ekin = 0.289851234000638 | epot = 0.15435832877944 | etot = 0.444209562780078
111000  ekin = 0.267594246653827 | epot = 0.176615315060786 | etot = 0.444209561714613
112000  ekin = 0.266993363895057 | epot = 0.177215792180566 | etot = 0.444209156075624
113000  ekin = 0.313254067504241 | epot = 0.130954993707266 | etot = 0.444209061211507
114000  ekin = 0.35056236139908 | epot = 0.0936466310453883 | etot = 0.444208992444469
115000  ekin = 0.352674138173011 | epot = 0.0915348286280869 | etot = 0.444208966801098
116000  ekin = 0.288849391474951 | epot = 0.155359561933356 | etot = 0.444208953408307
117000  ekin = 0.328505372050809 | epot = 0.115703525731016 | etot = 0.444208897781825
118000  ekin = 0.365959234515621 | epot = 0.0782502245782763 | etot = 0.444209459093898
119000  ekin = 0.354543123348588 | epot = 0.089666418707509 | etot = 0.444209542056097
120000  ekin = 0.264414841836296 | epot = 0.179794849645097 | etot = 0.444209691481393
121000  ekin = 0.223910024831948 | epot = 0.220299415606585 | etot = 0.444209440438533
122000  ekin = 0.264833816370282 | epot = 0.17937524838009 | etot = 0.444209064750372
123000  ekin = 0.340268796215544 | epot = 0.103940429497011 | etot = 0.444209225712555
124000  ekin = 0.382464001516743 | epot = 0.0617451505447725 | etot = 0.444209152061515
125000  ekin = 0.362407401450387 | epot = 0.0818017601109568 | etot = 0.444209161561343
126000  ekin = 0.347700362250789 | epot = 0.0965089953389698 | etot = 0.444209357589759
127000  ekin = 0.295761761209617 | epot = 0.148447783817393 | etot = 0.44420954502701
128000  ekin = 0.383961885572296 | epot = 0.0602488285334255 | etot = 0.444210714105721
129000  ekin = 0.352607640812936 | epot = 0.0916027624473708 | etot = 0.444210403260307
130000  ekin = 0.330731749004278 | epot = 0.113478662418277 | etot = 0.444210411422555
131000  ekin = 0.380558128478157 | epot = 0.0636522158316721 | etot = 0.444210344309829
132000  ekin = 0.3220407038703 | epot = 0.122169695626405 | etot = 0.444210399496705
133000  ekin = 0.365553003876164 | epot = 0.0786574592560273 | etot = 0.444210463132191
134000  ekin = 0.345415232375481 | epot = 0.0987952195361467 | etot = 0.444210451911628
135000  ekin = 0.398855982211049 | epot = 0.0453543961521849 | etot = 0.444210378363233
136000  ekin = 0.373681114160311 | epot = 0.0705287596011863 | etot = 0.444209873761497
137000  ekin = 0.326034293939897 | epot = 0.118175447189829 | etot = 0.444209741129726
138000  ekin = 0.297415157349038 | epot = 0.146794346112747 | etot = 0.444209503461785
139000  ekin = 0.291593917109814 | epot = 0.152617518488117 | etot = 0.444211435597931
140000  ekin = 0.359285741961718 | epot = 0.0849255706090187 | etot = 0.444211312570737
141000  ekin = 0.307072124408329 | epot = 0.137139220088778 | etot = 0.444211344497106
142000  ekin = 0.376585945226929 | epot = 0.0676253674079225 | etot = 0.444211312634852
143000  ekin = 0.358030687876431 | epot = 0.0861806273739007 | etot = 0.444211315250332
144000  ekin = 0.367601123234602 | epot = 0.0766101996909535 | etot = 0.444211322925555
145000  ekin = 0.356157884222353 | epot = 0.0880536230240366 | etot = 0.444211507246389
146000  ekin = 0.301080488349376 | epot = 0.143131063611796 | etot = 0.444211551961172
147000  ekin = 0.326372164146019 | epot = 0.117839401764109 | etot = 0.444211565910128
148000  ekin = 0.295393509044031 | epot = 0.148818087672077 | etot = 0.444211596716108
149000  ekin = 0.309700449857943 | epot = 0.134511122683921 | etot = 0.444211572541863
150000  ekin = 0.373144436466354 | epot = 0.071067045789849 | etot = 0.444211482256203
151000  ekin = 0.349320439120083 | epot = 0.0948909380285766 | etot = 0.44421137714866
152000  ekin = 0.413985793230448 | epot = 0.03022557684578 | etot = 0.444211370076228
153000  ekin = 0.378940994336649 | epot = 0.0652704719988445 | etot = 0.444211466335493
154000  ekin = 0.313432947034472 | epot = 0.130778600197657 | etot = 0.444211547232129
155000  ekin = 0.273411537520539 | epot = 0.170800111815262 | etot = 0.444211649335801
156000  ekin = 0.269440411447893 | epot = 0.174771252833042 | etot = 0.444211664280935
157000  ekin = 0.307521168960621 | epot = 0.136690561687404 | etot = 0.444211730648025
158000  ekin = 0.324861179774072 | epot = 0.119350524564979 | etot = 0.444211704339051
159000  ekin = 0.349301054662871 | epot = 0.0949105957271358 | etot = 0.444211650390007
160000  ekin = 0.252372591079258 | epot = 0.191839123011534 | etot = 0.444211714090792
161000  ekin = 0.293190252130102 | epot = 0.151021555644105 | etot = 0.444211807774207
162000  ekin = 0.330083584155368 | epot = 0.114128125609249 | etot = 0.444211709764618
163000  ekin = 0.237812690556516 | epot = 0.206399058746202 | etot = 0.444211749302718
164000  ekin = 0.379048540915842 | epot = 0.0651630702329126 | etot = 0.444211611148755
165000  ekin = 0.405393088667633 | epot = 0.0388184569151059 | etot = 0.444211545582738
166000  ekin = 0.29242686535695 | epot = 0.151784752863543 | etot = 0.444211618220493
167000  ekin = 0.327741099554973 | epot = 0.116471052211004 | etot = 0.444212151765978
168000  ekin = 0.417328911711814 | epot = 0.0268844381269906 | etot = 0.444213349838805
169000  ekin = 0.249931038317948 | epot = 0.19428247483466 | etot = 0.444213513152608
170000  ekin = 0.325053594836058 | epot = 0.119159902038519 | etot = 0.444213496874577
171000  ekin = 0.321870280065013 | epot = 0.122343269199778 | etot = 0.444213549264792
172000  ekin = 0.191954403277434 | epot = 0.25225931826289 | etot = 0.444213721540324
173000  ekin = 0.302788183520546 | epot = 0.14142549871468 | etot = 0.444213682235227
174000  ekin = 0.299016191251649 | epot = 0.145197602324731 | etot = 0.44421379357638
175000  ekin = 0.258824610598114 | epot = 0.185389183443868 | etot = 0.444213794041982
176000  ekin = 0.326078000088366 | epot = 0.118133609298271 | etot = 0.444211609386637
177000  ekin = 0.324190406541177 | epot = 0.120021561680161 | etot = 0.444211968221337
178000  ekin = 0.365126089999532 | epot = 0.0790858316272661 | etot = 0.444211921626798
179000  ekin = 0.276998747076934 | epot = 0.167212980704392 | etot = 0.444211727781326
180000  ekin = 0.312661500100853 | epot = 0.131550221683242 | etot = 0.444211721784095
181000  ekin = 0.342651225943853 | epot = 0.101560426124205 | etot = 0.444211652068058
182000  ekin = 0.374898264904465 | epot = 0.0693133286970095 | etot = 0.444211593601474
183000  ekin = 0.392354544898375 | epot = 0.0518576682650606 | etot = 0.444212213163436
184000  ekin = 0.370773023635919 | epot = 0.073438798938733 | etot = 0.444211822574652
185000  ekin = 0.385659354844658 | epot = 0.0585525995159058 | etot = 0.444211954360564
186000  ekin = 0.385601069078603 | epot = 0.0586109582346996 | etot = 0.444212027313302
187000  ekin = 0.337931477254439 | epot = 0.106280632838158 | etot = 0.444212110092597
188000  ekin = 0.293065307823217 | epot = 0.151147006490948 | etot = 0.444212314314165
189000  ekin = 0.299706702944373 | epot = 0.144505670364473 | etot = 0.444212373308846
190000  ekin = 0.307201806466538 | epot = 0.137010485958031 | etot = 0.44421229242457
191000  ekin = 0.324052571477267 | epot = 0.120159722240946 | etot = 0.444212293718214
192000  ekin = 0.316412381383894 | epot = 0.127799970019398 | etot = 0.444212351403293
193000  ekin = 0.333782977861391 | epot = 0.110428646522876 | etot = 0.444211624384267
194000  ekin = 0.406851657883094 | epot = 0.037360383673755 | etot = 0.444212041556849
195000  ekin = 0.366655966920745 | epot = 0.0775561168241898 | etot = 0.444212083744934
196000  ekin = 0.327683322049958 | epot = 0.116528455429203 | etot = 0.444211777479162
197000  ekin = 0.352214923985286 | epot = 0.091996979905928 | etot = 0.444211903891214
198000  ekin = 0.352946519714886 | epot = 0.0912654841132056 | etot = 0.444212003828091
199000  ekin = 0.309708378779154 | epot = 0.134503685170622 | etot = 0.444212063949776
200000  ekin = 0.365092872715642 | epot = 0.0791181323267447 | etot = 0.444211005042386
201000  ekin = 0.291350211552055 | epot = 0.152860779338628 | etot = 0.444210990890683
202000  ekin = 0.308852850396968 | epot = 0.135358087447157 | etot = 0.444210937844125
203000  ekin = 0.345443678732009 | epot = 0.0987672177242904 | etot = 0.4442108964563
204000  ekin = 0.36021179711318 | epot = 0.0839966532839723 | etot = 0.444208450397152
205000  ekin = 0.330615931783106 | epot = 0.113593212281548 | etot = 0.444209144064654
206000  ekin = 0.37938703382766 | epot = 0.0648223855941462 | etot = 0.444209419421806
207000  ekin = 0.376116838341019 | epot = 0.0680925456244621 | etot = 0.444209383965481
208000  ekin = 0.323932724096466 | epot = 0.120276680715808 | etot = 0.444209404812274
209000  ekin = 0.283976500048378 | epot = 0.160233074565298 | etot = 0.444209574613676
210000  ekin = 0.26772248080591 | epot = 0.176486853105836 | etot = 0.444209333911746
211000  ekin = 0.338731943949493 | epot = 0.105477285432402 | etot = 0.444209229381895
212000  ekin = 0.3436834856496 | epot = 0.100527666415574 | etot = 0.444211152065173
213000  ekin = 0.399470270371529 | epot = 0.0447408370080118 | etot = 0.444211107379541
214000  ekin = 0.35251400479732 | epot = 0.0916970970149478 | etot = 0.444211101812268
215000  ekin = 0.420216380245879 | epot = 0.0239946913972618 | etot = 0.444211071643141
216000  ekin = 0.359012929416105 | epot = 0.0851981850842597 | etot = 0.444211114500364
217000  ekin = 0.294364675282005 | epot = 0.149846437149418 | etot = 0.444211112431423
218000  ekin = 0.326071808773156 | epot = 0.118139364979497 | etot = 0.444211173752653
219000  ekin = 0.280285451382328 | epot = 0.163925893891765 | etot = 0.444211345274093
220000  ekin = 0.349436186134145 | epot = 0.0947737220217893 | etot = 0.444209908155934
221000  ekin = 0.34730437729629 | epot = 0.0969062201253375 | etot = 0.444210597421627
222000  ekin = 0.299794414941809 | epot = 0.144416230934127 | etot = 0.444210645875936
223000  ekin = 0.266332959255614 | epot = 0.177878974634402 | etot = 0.444211933890016
224000  ekin = 0.397118690437801 | epot = 0.0470926524641811 | etot = 0.444211342901982
225000  ekin = 0.360175652737773 | epot = 0.0840357172241752 | etot = 0.444211369961948
226000  ekin = 0.307541277818637 | epot = 0.136670223049105 | etot = 0.444211500867742
227000  ekin = 0.244463583852075 | epot = 0.19974797815507 | etot = 0.444211562007146
228000  ekin = 0.267744292046407 | epot = 0.176467140834616 | etot = 0.444211432881023
229000  ekin = 0.380746195629836 | epot = 0.0634651795359003 | etot = 0.444211375165736
230000  ekin = 0.360606578323813 | epot = 0.0836050102730191 | etot = 0.444211588596832
231000  ekin = 0.290546691603414 | epot = 0.153664156724353 | etot = 0.444210848327767
232000  ekin = 0.3475474526581 | epot = 0.0966634839108845 | etot = 0.444210936568985
233000  ekin = 0.253799602474396 | epot = 0.190411374583169 | etot = 0.444210977057566
234000  ekin = 0.321063764674924 | epot = 0.123147204729517 | etot = 0.444210969404441
235000  ekin = 0.353250874956408 | epot = 0.0909600263408542 | etot = 0.444210901297262
236000  ekin = 0.314918887239065 | epot = 0.129291998032009 | etot = 0.444210885271074
237000  ekin = 0.298273217328709 | epot = 0.145937695033164 | etot = 0.444210912361873
238000  ekin = 0.260591632654456 | epot = 0.18361932685256 | etot = 0.444210959507016
239000  ekin = 0.259922425207234 | epot = 0.184288566870216 | etot = 0.44421099207745
240000  ekin = 0.270162990467453 | epot = 0.174048074599416 | etot = 0.444211065066869
241000  ekin = 0.368228923456203 | epot = 0.0759821055809474 | etot = 0.444211029037151
242000  ekin = 0.341244970604429 | epot = 0.102965693314928 | etot = 0.444210663919357
243000  ekin = 0.346240555000813 | epot = 0.097969822901309 | etot = 0.444210377902122
244000  ekin = 0.343907744918553 | epot = 0.100302627469753 | etot = 0.444210372388306
245000  ekin = 0.394740818829933 | epot = 0.0494695843965671 | etot = 0.4442104032265
246000  ekin = 0.32875771295648 | epot = 0.11545274008882 | etot = 0.444210453045299
247000  ekin = 0.402027213020656 | epot = 0.0421812865852823 | etot = 0.444208499605938
248000  ekin = 0.309931480012842 | epot = 0.134277063833714 | etot = 0.444208543846556
249000  ekin = 0.343125782360324 | epot = 0.1010827675626 | etot = 0.444208549922923
250000  ekin = 0.280544562081216 | epot = 0.163662976835759 | etot = 0.444207538916975
    250000   0.020781079    0              0.016366298    0.044420754   -3.6618418e-05
Loop time of 28.2531 on 1 procs for 250000 steps with 10 atoms

Performance: 764517.651 tau/day, 8848.584 timesteps/s, 88.486 katom-step/s
100.0% CPU use with 1 MPI tasks x 1 OpenMP threads

MPI task timing breakdown:
Section |  min time  |  avg time  |  max time  |%varavg| %total
---------------------------------------------------------------
Pair    | 4.4239     | 4.4239     | 4.4239     |   0.0 | 15.66
Bond    | 7.3397     | 7.3397     | 7.3397     |   0.0 | 25.98
Neigh   | 0.055064   | 0.055064   | 0.055064   |   0.0 |  0.19
Comm    | 4.9909     | 4.9909     | 4.9909     |   0.0 | 17.66
Output  | 0.0035634  | 0.0035634  | 0.0035634  |   0.0 |  0.01
Modify  | 6.8442     | 6.8442     | 6.8442     |   0.0 | 24.22
Other   |            | 4.596      |            |       | 16.27

Nlocal:             10 ave          10 max          10 min
Histogram: 1 0 0 0 0 0 0 0 0 0
Nghost:              9 ave           9 max           9 min
Histogram: 1 0 0 0 0 0 0 0 0 0
Neighs:              0 ave           0 max           0 min
Histogram: 1 0 0 0 0 0 0 0 0 0
FullNghs:           34 ave          34 max          34 min
Histogram: 1 0 0 0 0 0 0 0 0 0

Total # of neighbors = 34
Ave neighs/atom = 3.4
Ave special neighs/atom = 4.8
Neighbor list builds = 159
Dangerous builds = 0
System init for write_data ...
Generated 0 of 0 mixed pair_coeff terms from geometric mixing rule
Total wall time: 0:00:28
