LAMMPS (10 Sep 2025 - Development - patch_19Nov2024-4573-g7a837a83c1-modified)
KOKKOS mode with Kokkos version 4.7.1 is enabled
  using double precision
  using view layout = legacy
  using 1 OpenMP thread(s) per MPI task
package kokkos
package kokkos comm device neigh half newton off
###
# Box and units  (use LJ units and periodic boundaries)
###

units           lj
atom_style      ellipsoid
dimension	3
boundary	p p p

region          simcell block -1 2 -1 2 -1 2
#region          simcell block -1 6 -1 6 -1 6
create_box	1 simcell
Created orthogonal box = (-1 -1 -1) to (2 2 2)
  1 by 1 by 2 MPI processor grid

lattice		sc 0.75
Lattice spacing in x,y,z = 1.1006424 1.1006424 1.1006424
region		mybox block -0.95 1 -0.95 1 -0.95 1
#region		mybox block -0.95 4 -0.95 4 -0.95 4
create_atoms	1 region mybox
Created 8 atoms
  using lattice units in orthogonal box = (-1 -1 -1) to (2 2 2)
  create_atoms CPU = 0.001 seconds

group           all type 1
8 atoms in group all
set             type 1 mass 1.0
Setting atom values ...
  8 settings made for mass
set             type 1 shape 0.6 0.3 0.2
Setting atom values ...
  8 settings made for shape
#set             type 1 quat/random 29898
group		subA id 1:4
4 atoms in group subA
group		subB id 5:7
3 atoms in group subB
group           subC id 8
1 atoms in group subC
#group		subA id 1:50
#group		subB id 51:100
#group           subC id 101:125

#velocity 	all create 0.1 87287 loop geom #rot yes # 'rot yes' zeros angmom
set group	subA vx 0.0 vy 0.0 vz 0.0
Setting atom values ...
  4 settings made for vx
  4 settings made for vy
  4 settings made for vz
set group	subB vx 0.5 vy -0.5 vz -1.0
Setting atom values ...
  3 settings made for vx
  3 settings made for vy
  3 settings made for vz
set group	subC vx -1.5 vy 0.5 vz 0.5
Setting atom values ...
  1 settings made for vx
  1 settings made for vy
  1 settings made for vz
set group 	subA angmom 0.05 0.0 0.0
Setting atom values ...
  4 settings made for angmom
set group 	subB angmom 0.05 0.4 0.0
Setting atom values ...
  3 settings made for angmom
set group 	subC angmom 0.00 0.0 0.3
Setting atom values ...
  1 settings made for angmom
set group 	subA quat 0.0 0.0 0.0 1.0
Setting atom values ...
  4 settings made for quat
set group 	subB quat 0.146 0.0 0.354 0.354
Setting atom values ...
  3 settings made for quat
set group 	subC quat 0.683 -0.183 0.500 0.500
Setting atom values ...
  1 settings made for quat

neighbor        0.3 bin
neigh_modify    delay 0 every 100 check yes

###################################################################
# Pair interaction between non-bonded atoms
#
#  Lennard-Jones 12-6 potential with cutoff:
#  potential E=4epsilon[ (sigma/r)^12 - (sigma/r)^6]  for r<r_cut
#
#  1.12246152962189 = 2^(1/6) is the minimum of the potential

pair_style      lj/cut 1.12246152962189

#
#  pair_coeff for lj/cut, specify 4:
#    * atom type interacting with
#    * atom type
#    * epsilon (energy units)
#    * sigma (distance units)
#

pair_coeff      1 1 1 1.12246152962189

#
#  pair_modify shift yes adds a constant to the potential such
#  that E(r_cut)=0. Forces remains unchanged.
#

pair_modify     shift yes

###################################################
reset_atoms 	id sort yes
Resetting atom IDs ...
Generated 0 of 0 mixed pair_coeff terms from geometric mixing rule
Neighbor list info ...
  update: every = 100 steps, delay = 0 steps, check = yes
  max neighbors/atom: 2000, page size: 100000
  master list distance cutoff = 1.4224615
  ghost atom cutoff = 1.4224615
  binsize = 0.71123076, bins = 5 5 5
  1 neighbor lists, perpetual/occasional/extra = 1 0 0
  (1) pair lj/cut/kk, perpetual
      attributes: half, newton off, kokkos_device
      pair build: half/bin/newtoff/kk/device
      stencil: full/bin/3d
      bin: kk/device

comm_modify cutoff 3
#comm_style tiled
#balance 1.2 rcb

###
# Set up fixes
###

fix 1 all   nve/asphere   ###NVE ensemble
#fix 2 all   langevin   1.0 1.0   2.0   424242   ###Langevin integrator Tstart Tstop 1/friction rndseed

compute ekin all ke
compute epot all pe
compute erot all erotate/asphere
variable ekin equal c_ekin
variable epot equal c_epot
variable erot equal c_erot
variable etot equal c_ekin+c_epot+c_erot

fix 3 all print 1 "$(step)  ekin = ${ekin} | epot = ${epot} | erot = ${erot} | etot = ${etot}" screen yes

compute q all property/atom quatw quati quatj quatk
compute diameter all property/atom shapex shapey shapez
dump 1 all custom 1 dump.polymer id type x y z c_q[1] c_q[2] c_q[3] c_q[4] c_diameter[1] c_diameter[2] c_diameter[3]
dump_modify 1 colname c_q[1] quatw colname c_q[2] quati colname c_q[3] quatj colname c_q[4] quatk

###################################################

timestep 0.001 #0.012

run 1000

CITE-CITE-CITE-CITE-CITE-CITE-CITE-CITE-CITE-CITE-CITE-CITE-CITE

Your simulation uses code contributions which should be cited:

- KOKKOS package: https://doi.org/10.1145/3731599.3767498

@inproceedings{Johansson25,
 author = {A. Johansson and E. Weinberg and C. Trott and M. McCarthy and S. Moore},
 title = {{LAMMPS-KOKKOS}: {P}erformance Portable Molecular Dynamics Across Exascale Architectures},
 year = 2025,
 booktitle = {Proceedings of the SC '25 Workshops of the International Conference for High Performance Computing,
  Networking, Storage and Analysis},
 pages = {1217–1232},
}

CITE-CITE-CITE-CITE-CITE-CITE-CITE-CITE-CITE-CITE-CITE-CITE-CITE

Generated 0 of 0 mixed pair_coeff terms from geometric mixing rule
0  ekin = 3.625 | epot = 6.74981285098768 | erot = 15.3599195415858 | etot = 25.7347323925735
Per MPI rank memory allocation (min/avg/max) = 5.479 | 5.479 | 5.479 Mbytes
   Step          Temp          E_pair         E_mol          TotEng         Press     
         0   0.3452381      0.84372661     0              1.2968516      5.0894674    
1  ekin = 3.5188288925362 | epot = 6.30142317237725 | erot = 15.3599195745329 | etot = 25.1801716394463
2  ekin = 3.42216154330756 | epot = 6.39811032333473 | erot = 15.3599196074919 | etot = 25.1801914741342
3  ekin = 3.34323443649659 | epot = 6.47705428376828 | erot = 15.3599196404729 | etot = 25.1802083607377
4  ekin = 3.28233321519433 | epot = 6.53796930732837 | erot = 15.3599196734856 | etot = 25.1802221960083
5  ekin = 3.23969202857639 | epot = 6.58062115372272 | erot = 15.3599197065401 | etot = 25.1802328888392
6  ekin = 3.21549209108639 | epot = 6.60482853010088 | erot = 15.3599197396462 | etot = 25.1802403608335
7  ekin = 3.20986044575744 | epot = 6.61046432831712 | erot = 15.359919772814 | etot = 25.1802445468885
8  ekin = 3.22286894077565 | epot = 6.59745664897208 | erot = 15.3599198060534 | etot = 25.1802453958011
9  ekin = 3.25453342859449 | epot = 6.56578960292487 | erot = 15.3599198393744 | etot = 25.1802428708938
10  ekin = 3.30481319711518 | epot = 6.51550388075621 | erot = 15.3599198727871 | etot = 25.1802369506584
11  ekin = 3.373610642599 | epot = 6.44669708050956 | erot = 15.3599199063014 | etot = 25.18022762941
12  ekin = 3.46077119401203 | epot = 6.3595237839971 | erot = 15.3599199399276 | etot = 25.1802149179367
13  ekin = 3.56608349835554 | epot = 6.2541953721007 | erot = 15.3599199736757 | etot = 25.1801988441319
14  ekin = 3.68927987614439 | epot = 6.13097956988449 | erot = 15.3599200075559 | etot = 25.1801794535848
15  ekin = 3.81028173143022 | epot = 5.99055483450506 | erot = 15.3599200415784 | etot = 25.1607566075136
16  ekin = 3.92862959961208 | epot = 5.87218608370056 | erot = 15.3599200757534 | etot = 25.160735759066
17  ekin = 4.064076547049 | epot = 5.73671478017431 | erot = 15.3599201100913 | etot = 25.1607114373146
18  ekin = 4.2162221884061 | epot = 5.58454142671862 | erot = 15.3599201446024 | etot = 25.1606837597271
19  ekin = 4.38461048135492 | epot = 5.4161222056027 | erot = 15.3599201792971 | etot = 25.1606528662547
20  ekin = 4.56873189540443 | epot = 5.23196680922113 | erot = 15.3599202141858 | etot = 25.1606189188114
21  ekin = 4.76802592019044 | epot = 5.03263593103437 | erot = 15.3599202492792 | etot = 25.160582100504
22  ekin = 4.98188390135142 | epot = 4.81873842865889 | erot = 15.3599202845877 | etot = 25.160542614598
23  ekin = 5.20965218817418 | epot = 4.59092817491528 | erot = 15.359920320122 | etot = 25.1605006832115
24  ekin = 5.45063557313157 | epot = 4.34990061671102 | erot = 15.3599203558929 | etot = 25.1604565457355
25  ekin = 5.70410099935726 | epot = 4.09638906571825 | erot = 15.3599203919112 | etot = 25.1604104569867
26  ekin = 5.96928150811893 | epot = 3.83116074879974 | erot = 15.3599204281877 | etot = 25.1603626851064
27  ekin = 6.24538039458056 | epot = 3.55501264991473 | erot = 15.3599204647334 | etot = 25.1603135092287
28  ekin = 6.43581332897979 | epot = 3.37257787439086 | erot = 15.3599205015592 | etot = 25.1683117049299
29  ekin = 6.53829240393346 | epot = 3.27007240103041 | erot = 15.3599205386764 | etot = 25.1682853436403
30  ekin = 6.64921936562547 | epot = 3.1591172065709 | erot = 15.3599205760961 | etot = 25.1682571482925
31  ekin = 6.76813681735689 | epot = 3.04016992898844 | erot = 15.3599206138297 | etot = 25.168227360175
32  ekin = 6.89456050439818 | epot = 2.91371507397653 | erot = 15.3599206518884 | etot = 25.1681962302631
33  ekin = 7.02798314352537 | epot = 2.78026018200104 | erot = 15.3599206902839 | etot = 25.1681640158103
34  ekin = 7.1678783547894 | epot = 2.64033189312267 | erot = 15.3599207290276 | etot = 25.1681309769396
35  ekin = 7.31370464466131 | epot = 2.49447196051219 | erot = 15.3599207681313 | etot = 25.1680973733048
36  ekin = 7.46490939063978 | epot = 2.34323326263694 | erot = 15.3599208076067 | etot = 25.1680634608834
37  ekin = 7.62093277930489 | epot = 2.18717586219348 | erot = 15.3599208474658 | etot = 25.1680294889642
38  ekin = 7.78121165256617 | epot = 2.02686315708939 | erot = 15.3599208877206 | etot = 25.1679956973762
39  ekin = 7.94518322037805 | epot = 1.86285816524368 | erot = 15.3599209283831 | etot = 25.1679623140049
40  ekin = 8.11228860235563 | epot = 1.69571998080639 | erot = 15.3599209694657 | etot = 25.1679295526277
41  ekin = 8.28197616538237 | epot = 1.52600043472898 | erot = 15.3599210109807 | etot = 25.167897611092
42  ekin = 8.45370462931568 | epot = 1.35424098759321 | erot = 15.3599210529405 | etot = 25.1678666698494
43  ekin = 8.62694591812316 | epot = 1.18096987736987 | erot = 15.3599210953577 | etot = 25.1678368908508
44  ekin = 8.80118773908232 | epot = 1.00669953946957 | erot = 15.3599211382452 | etot = 25.167808416797
45  ekin = 8.97593587791938 | epot = 0.831924311197301 | erot = 15.3599211816156 | etot = 25.1677813707323
46  ekin = 9.09365552569324 | epot = 0.738232054093356 | erot = 15.359921225482 | etot = 25.1918088052686
47  ekin = 9.15376903730844 | epot = 0.678106363594246 | erot = 15.3599212698576 | etot = 25.1917966707603
48  ekin = 9.21421518854227 | epot = 0.617648684882759 | erot = 15.3599213147555 | etot = 25.1917851881805
49  ekin = 9.27479339079301 | epot = 0.557059657044175 | erot = 15.3599213601892 | etot = 25.1917744080264
50  ekin = 9.33531302725654 | epot = 0.49652993661037 | erot = 15.3599214061721 | etot = 25.191764370039
51  ekin = 9.39559413036617 | epot = 0.436239520525875 | erot = 15.3599214527179 | etot = 25.19175510361
52  ekin = 9.45546790422685 | epot = 0.376357224250576 | erot = 15.3599214998405 | etot = 25.1917466283179
53  ekin = 9.51477709945214 | epot = 0.317040307564743 | erot = 15.3599215475537 | etot = 25.1917389545706
54  ekin = 9.57337624941753 | epot = 0.258434239038233 | erot = 15.3599215958717 | etot = 25.1917320843275
55  ekin = 9.63113177818463 | epot = 0.200672588885406 | erot = 15.3599216448087 | etot = 25.1917260118788
56  ekin = 9.68792199124553 | epot = 0.143877039034614 | erot = 15.3599216943791 | etot = 25.1917207246592
57  ekin = 9.74363696080844 | epot = 0.0881574986712712 | erot = 15.3599217445974 | etot = 25.1917162040771
58  ekin = 9.79817831762517 | epot = 0.0336123132363066 | erot = 15.3599217954783 | etot = 25.1917124263397
59  ekin = 9.82525946602325 | epot = 0 | erot = 15.3599218470366 | etot = 25.1851813130598
60  ekin = 9.82525946602325 | epot = 0 | erot = 15.3599218992873 | etot = 25.1851813653106
61  ekin = 9.82525946602325 | epot = 0 | erot = 15.3599219522456 | etot = 25.1851814182688
62  ekin = 9.82525946602325 | epot = 0 | erot = 15.3599220059267 | etot = 25.18518147195
63  ekin = 9.82525946602325 | epot = 0 | erot = 15.3599220603462 | etot = 25.1851815263694
64  ekin = 9.82525946602325 | epot = 0 | erot = 15.3599221155195 | etot = 25.1851815815427
65  ekin = 9.82525946602325 | epot = 0 | erot = 15.3599221714625 | etot = 25.1851816374857
66  ekin = 9.82525946602325 | epot = 0 | erot = 15.359922228191 | etot = 25.1851816942142
67  ekin = 9.82525946602325 | epot = 0 | erot = 15.3599222857211 | etot = 25.1851817517444
68  ekin = 9.82525946602325 | epot = 0 | erot = 15.3599223440691 | etot = 25.1851818100923
69  ekin = 9.82525946602325 | epot = 0 | erot = 15.3599224032513 | etot = 25.1851818692745
70  ekin = 9.82525946602325 | epot = 0 | erot = 15.3599224632841 | etot = 25.1851819293074
71  ekin = 9.82525946602325 | epot = 0 | erot = 15.3599225241844 | etot = 25.1851819902076
72  ekin = 9.82525946602325 | epot = 0 | erot = 15.3599225859688 | etot = 25.185182051992
73  ekin = 9.82525946602325 | epot = 0 | erot = 15.3599226486544 | etot = 25.1851821146776
74  ekin = 9.82525946602325 | epot = 0 | erot = 15.3599227122582 | etot = 25.1851821782814
75  ekin = 9.82525946602325 | epot = 0 | erot = 15.3599227767975 | etot = 25.1851822428207
76  ekin = 9.82525946602325 | epot = 0 | erot = 15.3599228422897 | etot = 25.1851823083129
77  ekin = 9.82525946602325 | epot = 0 | erot = 15.3599229087523 | etot = 25.1851823747755
78  ekin = 9.82525946602325 | epot = 0 | erot = 15.359922976203 | etot = 25.1851824422262
79  ekin = 9.82525946602325 | epot = 0 | erot = 15.3599230446595 | etot = 25.1851825106827
80  ekin = 9.82525946602325 | epot = 0 | erot = 15.3599231141398 | etot = 25.185182580163
81  ekin = 9.82525946602325 | epot = 0 | erot = 15.3599231846619 | etot = 25.1851826506851
82  ekin = 9.82525946602325 | epot = 0 | erot = 15.3599232562439 | etot = 25.1851827222672
83  ekin = 9.82525946602325 | epot = 0 | erot = 15.3599233289042 | etot = 25.1851827949274
84  ekin = 9.82525946602325 | epot = 0 | erot = 15.3599234026611 | etot = 25.1851828686843
85  ekin = 9.82525946602325 | epot = 0 | erot = 15.3599234775331 | etot = 25.1851829435563
86  ekin = 9.82525946602325 | epot = 0 | erot = 15.3599235535387 | etot = 25.185183019562
87  ekin = 9.82525946602325 | epot = 0 | erot = 15.3599236306967 | etot = 25.1851830967199
88  ekin = 9.82525946602325 | epot = 0 | erot = 15.3599237090257 | etot = 25.185183175049
89  ekin = 9.82525946602325 | epot = 0 | erot = 15.3599237885447 | etot = 25.1851832545679
90  ekin = 9.82525946602325 | epot = 0 | erot = 15.3599238692724 | etot = 25.1851833352957
91  ekin = 9.82525946602325 | epot = 0 | erot = 15.359923951228 | etot = 25.1851834172512
92  ekin = 9.82525946602325 | epot = 0 | erot = 15.3599240344302 | etot = 25.1851835004535
93  ekin = 9.82525946602325 | epot = 0 | erot = 15.3599241188984 | etot = 25.1851835849216
94  ekin = 9.82525946602325 | epot = 0 | erot = 15.3599242046514 | etot = 25.1851836706746
95  ekin = 9.82525946602325 | epot = 0 | erot = 15.3599242917084 | etot = 25.1851837577317
96  ekin = 9.82525946602325 | epot = 0 | erot = 15.3599243800886 | etot = 25.1851838461118
97  ekin = 9.82525946602325 | epot = 0 | erot = 15.359924469811 | etot = 25.1851839358342
98  ekin = 9.82525946602325 | epot = 0 | erot = 15.3599245608948 | etot = 25.185184026918
99  ekin = 9.82525946602325 | epot = 0 | erot = 15.359924653359 | etot = 25.1851841193823
100  ekin = 9.82525946602325 | epot = 0 | erot = 15.3599247472228 | etot = 25.185184213246
101  ekin = 9.82525946602325 | epot = 0 | erot = 15.359924842505 | etot = 25.1851843085283
102  ekin = 9.82525946602325 | epot = 0 | erot = 15.3599249392248 | etot = 25.185184405248
103  ekin = 9.82525946602325 | epot = 0 | erot = 15.3599250374009 | etot = 25.1851845034241
104  ekin = 9.82525946602325 | epot = 0 | erot = 15.359925137052 | etot = 25.1851846030753
105  ekin = 9.82525946602325 | epot = 0 | erot = 15.359925238197 | etot = 25.1851847042202
106  ekin = 9.82525946602325 | epot = 0 | erot = 15.3599253408543 | etot = 25.1851848068775
107  ekin = 9.82525946602325 | epot = 0 | erot = 15.3599254450423 | etot = 25.1851849110655
108  ekin = 9.82525946602325 | epot = 0 | erot = 15.3599255507792 | etot = 25.1851850168025
109  ekin = 9.82525946602325 | epot = 0 | erot = 15.3599256580832 | etot = 25.1851851241065
110  ekin = 9.82525946602325 | epot = 0 | erot = 15.3599257669722 | etot = 25.1851852329954
111  ekin = 9.82525946602325 | epot = 0 | erot = 15.3599258774637 | etot = 25.1851853434869
112  ekin = 9.82525946602325 | epot = 0 | erot = 15.3599259895752 | etot = 25.1851854555984
113  ekin = 9.82525946602325 | epot = 0 | erot = 15.3599261033239 | etot = 25.1851855693471
114  ekin = 9.82525946602325 | epot = 0 | erot = 15.3599262187267 | etot = 25.1851856847499
115  ekin = 9.82525946602325 | epot = 0 | erot = 15.3599263358001 | etot = 25.1851858018234
116  ekin = 9.82525946602325 | epot = 0 | erot = 15.3599264545605 | etot = 25.1851859205838
117  ekin = 9.82525946602325 | epot = 0 | erot = 15.3599265750239 | etot = 25.1851860410471
118  ekin = 9.82525946602325 | epot = 0 | erot = 15.3599266972057 | etot = 25.1851861632289
119  ekin = 9.82525946602325 | epot = 0 | erot = 15.3599268211211 | etot = 25.1851862871444
120  ekin = 9.82525946602325 | epot = 0 | erot = 15.3599269467851 | etot = 25.1851864128083
121  ekin = 9.82525946602325 | epot = 0 | erot = 15.3599270742117 | etot = 25.185186540235
122  ekin = 9.82525946602325 | epot = 0 | erot = 15.3599272034151 | etot = 25.1851866694383
123  ekin = 9.82525946602325 | epot = 0 | erot = 15.3599273344084 | etot = 25.1851868004317
124  ekin = 9.82525946602325 | epot = 0 | erot = 15.3599274672047 | etot = 25.1851869332279
125  ekin = 9.82525946602325 | epot = 0 | erot = 15.3599276018161 | etot = 25.1851870678394
126  ekin = 9.82525946602325 | epot = 0 | erot = 15.3599277382546 | etot = 25.1851872042778
127  ekin = 9.82525946602325 | epot = 0 | erot = 15.3599278765311 | etot = 25.1851873425544
128  ekin = 9.82525946602325 | epot = 0 | erot = 15.3599280166563 | etot = 25.1851874826796
129  ekin = 9.82525946602325 | epot = 0 | erot = 15.35992815864 | etot = 25.1851876246633
130  ekin = 9.82525946602325 | epot = 0 | erot = 15.3599283024915 | etot = 25.1851877685147
131  ekin = 9.82525946602325 | epot = 0 | erot = 15.3599284482191 | etot = 25.1851879142424
132  ekin = 9.82525946602325 | epot = 0 | erot = 15.3599285958308 | etot = 25.185188061854
133  ekin = 9.82525946602325 | epot = 0 | erot = 15.3599287453333 | etot = 25.1851882113566
134  ekin = 9.82525946602325 | epot = 0 | erot = 15.359928896733 | etot = 25.1851883627563
135  ekin = 9.82525946602325 | epot = 0 | erot = 15.3599290500352 | etot = 25.1851885160584
136  ekin = 9.82525946602325 | epot = 0 | erot = 15.3599292052444 | etot = 25.1851886712676
137  ekin = 9.82525946602325 | epot = 0 | erot = 15.3599293623642 | etot = 25.1851888283874
138  ekin = 9.82525946602325 | epot = 0 | erot = 15.3599295213973 | etot = 25.1851889874206
139  ekin = 9.82525946602325 | epot = 0 | erot = 15.3599296823457 | etot = 25.1851891483689
140  ekin = 9.82525946602325 | epot = 0 | erot = 15.3599298452099 | etot = 25.1851893112332
141  ekin = 9.82525946602325 | epot = 0 | erot = 15.3599300099899 | etot = 25.1851894760132
142  ekin = 9.82525946602325 | epot = 0 | erot = 15.3599301766846 | etot = 25.1851896427078
143  ekin = 9.82525946602325 | epot = 0 | erot = 15.3599303452916 | etot = 25.1851898113148
144  ekin = 9.82525946602325 | epot = 0 | erot = 15.3599305158076 | etot = 25.1851899818308
145  ekin = 9.82525946602325 | epot = 0 | erot = 15.3599306882282 | etot = 25.1851901542515
146  ekin = 9.82525946602325 | epot = 0 | erot = 15.359930862548 | etot = 25.1851903285712
147  ekin = 9.82525946602325 | epot = 0 | erot = 15.3599310387602 | etot = 25.1851905047834
148  ekin = 9.82525946602325 | epot = 0 | erot = 15.359931216857 | etot = 25.1851906828802
149  ekin = 9.82525946602325 | epot = 0 | erot = 15.3599313968294 | etot = 25.1851908628526
150  ekin = 9.82525946602325 | epot = 0 | erot = 15.3599315786671 | etot = 25.1851910446904
151  ekin = 9.82525946602325 | epot = 0 | erot = 15.3599317623587 | etot = 25.185191228382
152  ekin = 9.82525946602325 | epot = 0 | erot = 15.3599319478915 | etot = 25.1851914139148
153  ekin = 9.82525946602325 | epot = 0 | erot = 15.3599321352515 | etot = 25.1851916012748
154  ekin = 9.82525946602325 | epot = 0 | erot = 15.3599323244235 | etot = 25.1851917904468
155  ekin = 9.82525946602325 | epot = 0 | erot = 15.3599325153909 | etot = 25.1851919814142
156  ekin = 9.82525946602325 | epot = 0 | erot = 15.3599327081359 | etot = 25.1851921741592
157  ekin = 9.82525946602325 | epot = 0 | erot = 15.3599329026393 | etot = 25.1851923686626
158  ekin = 9.82525946602325 | epot = 0 | erot = 15.3599330988807 | etot = 25.185192564904
159  ekin = 9.82525946602325 | epot = 0 | erot = 15.3599332968382 | etot = 25.1851927628615
160  ekin = 9.82525946602325 | epot = 0 | erot = 15.3599334964887 | etot = 25.185192962512
161  ekin = 9.82525946602325 | epot = 0 | erot = 15.3599336978077 | etot = 25.185193163831
162  ekin = 9.82525946602325 | epot = 0 | erot = 15.3599339007694 | etot = 25.1851933667927
163  ekin = 9.82525946602325 | epot = 0 | erot = 15.3599341053466 | etot = 25.1851935713698
164  ekin = 9.82525946602325 | epot = 0 | erot = 15.3599343115107 | etot = 25.185193777534
165  ekin = 9.82525946602325 | epot = 0 | erot = 15.359934519232 | etot = 25.1851939852553
166  ekin = 9.82525946602325 | epot = 0 | erot = 15.3599347284792 | etot = 25.1851941945025
167  ekin = 9.82525946602325 | epot = 0 | erot = 15.3599349392199 | etot = 25.1851944052432
168  ekin = 9.82525946602325 | epot = 0 | erot = 15.3599351514203 | etot = 25.1851946174436
169  ekin = 9.82525946602325 | epot = 0 | erot = 15.3599353650453 | etot = 25.1851948310685
170  ekin = 9.82525946602325 | epot = 0 | erot = 15.3599355800584 | etot = 25.1851950460816
171  ekin = 9.82525946602325 | epot = 0 | erot = 15.3599357964221 | etot = 25.1851952624453
172  ekin = 9.82525946602325 | epot = 0 | erot = 15.3599360140974 | etot = 25.1851954801206
173  ekin = 9.82525946602325 | epot = 0 | erot = 15.3599362330443 | etot = 25.1851956990676
174  ekin = 9.82525946602325 | epot = 0 | erot = 15.3599364532215 | etot = 25.1851959192448
175  ekin = 9.82525946602325 | epot = 0 | erot = 15.3599366745866 | etot = 25.1851961406098
176  ekin = 9.82525946602325 | epot = 0 | erot = 15.3599368970958 | etot = 25.1851963631191
177  ekin = 9.82525946602325 | epot = 0 | erot = 15.3599371207046 | etot = 25.1851965867279
178  ekin = 9.82525946602325 | epot = 0 | erot = 15.3599373453672 | etot = 25.1851968113904
179  ekin = 9.82525946602325 | epot = 0 | erot = 15.3599375710367 | etot = 25.1851970370599
180  ekin = 9.82525946602325 | epot = 0 | erot = 15.3599377976653 | etot = 25.1851972636886
181  ekin = 9.82525946602325 | epot = 0 | erot = 15.3599380252044 | etot = 25.1851974912277
182  ekin = 9.82525946602325 | epot = 0 | erot = 15.3599382536041 | etot = 25.1851977196274
183  ekin = 9.82525946602325 | epot = 0 | erot = 15.3599384828141 | etot = 25.1851979488373
184  ekin = 9.82525946602325 | epot = 0 | erot = 15.3599387127828 | etot = 25.185198178806
185  ekin = 9.82525946602325 | epot = 0 | erot = 15.3599389434581 | etot = 25.1851984094814
186  ekin = 9.82525946602325 | epot = 0 | erot = 15.3599391747872 | etot = 25.1851986408105
187  ekin = 9.82525946602325 | epot = 0 | erot = 15.3599394067165 | etot = 25.1851988727397
188  ekin = 9.82525946602325 | epot = 0 | erot = 15.3599396391918 | etot = 25.1851991052151
189  ekin = 9.82525946602325 | epot = 0 | erot = 15.3599398721584 | etot = 25.1851993381816
190  ekin = 9.82525946602325 | epot = 0 | erot = 15.3599401055609 | etot = 25.1851995715842
191  ekin = 9.82525946602325 | epot = 0 | erot = 15.3599403393438 | etot = 25.185199805367
192  ekin = 9.82525946602325 | epot = 0 | erot = 15.3599405734507 | etot = 25.185200039474
193  ekin = 9.82525946602325 | epot = 0 | erot = 15.3599408078254 | etot = 25.1852002738486
194  ekin = 9.82525946602325 | epot = 0 | erot = 15.359941042411 | etot = 25.1852005084342
195  ekin = 9.82525946602325 | epot = 0 | erot = 15.3599412771505 | etot = 25.1852007431737
196  ekin = 9.82525946602325 | epot = 0 | erot = 15.3599415119867 | etot = 25.18520097801
197  ekin = 9.82525946602325 | epot = 0 | erot = 15.3599417468626 | etot = 25.1852012128858
198  ekin = 9.82525946602325 | epot = 0 | erot = 15.3599419817206 | etot = 25.1852014477439
199  ekin = 9.82525946602325 | epot = 0 | erot = 15.3599422165037 | etot = 25.1852016825269
200  ekin = 9.82525946602325 | epot = 0 | erot = 15.3599424511545 | etot = 25.1852019171777
201  ekin = 9.82525946602325 | epot = 0 | erot = 15.359942685616 | etot = 25.1852021516393
202  ekin = 9.82525946602325 | epot = 0 | erot = 15.3599429198314 | etot = 25.1852023858547
203  ekin = 9.82525946602325 | epot = 0 | erot = 15.359943153744 | etot = 25.1852026197673
204  ekin = 9.82525946602325 | epot = 0 | erot = 15.3599433872977 | etot = 25.1852028533209
205  ekin = 9.82525946602325 | epot = 0 | erot = 15.3599436204364 | etot = 25.1852030864597
206  ekin = 9.82525946602325 | epot = 0 | erot = 15.3599438531047 | etot = 25.185203319128
207  ekin = 9.82525946602325 | epot = 0 | erot = 15.3599440852477 | etot = 25.1852035512709
208  ekin = 9.82525946602325 | epot = 0 | erot = 15.3599443168109 | etot = 25.1852037828341
209  ekin = 9.82525946602325 | epot = 0 | erot = 15.3599445477404 | etot = 25.1852040137637
210  ekin = 9.82525946602325 | epot = 0 | erot = 15.3599447779832 | etot = 25.1852042440065
211  ekin = 9.82525946602325 | epot = 0 | erot = 15.3599450074868 | etot = 25.1852044735101
212  ekin = 9.82525946602325 | epot = 0 | erot = 15.3599452361994 | etot = 25.1852047022227
213  ekin = 9.82525946602325 | epot = 0 | erot = 15.3599454640702 | etot = 25.1852049300935
214  ekin = 9.82525946602325 | epot = 0 | erot = 15.3599456910491 | etot = 25.1852051570724
215  ekin = 9.82525946602325 | epot = 0 | erot = 15.359945917087 | etot = 25.1852053831102
216  ekin = 9.82525946602325 | epot = 0 | erot = 15.3599461421356 | etot = 25.1852056081589
217  ekin = 9.82525946602325 | epot = 0 | erot = 15.3599463661478 | etot = 25.185205832171
218  ekin = 9.82525946602325 | epot = 0 | erot = 15.3599465890773 | etot = 25.1852060551005
219  ekin = 9.82525946602325 | epot = 0 | erot = 15.359946810879 | etot = 25.1852062769022
220  ekin = 9.82525946602325 | epot = 0 | erot = 15.3599470315088 | etot = 25.1852064975321
221  ekin = 9.82525946602325 | epot = 0 | erot = 15.3599472509238 | etot = 25.1852067169471
222  ekin = 9.82525946602325 | epot = 0 | erot = 15.3599474690823 | etot = 25.1852069351055
223  ekin = 9.82525946602325 | epot = 0 | erot = 15.3599476859436 | etot = 25.1852071519668
224  ekin = 9.82525946602325 | epot = 0 | erot = 15.3599479014683 | etot = 25.1852073674916
225  ekin = 9.82525946602325 | epot = 0 | erot = 15.3599481156184 | etot = 25.1852075816417
226  ekin = 9.82525946602325 | epot = 0 | erot = 15.3599483283569 | etot = 25.1852077943802
227  ekin = 9.82525946602325 | epot = 0 | erot = 15.3599485396482 | etot = 25.1852080056715
228  ekin = 9.82525946602325 | epot = 0 | erot = 15.359948749458 | etot = 25.1852082154812
229  ekin = 9.82525946602325 | epot = 0 | erot = 15.3599489577532 | etot = 25.1852084237764
230  ekin = 9.82525946602325 | epot = 0 | erot = 15.3599491645021 | etot = 25.1852086305253
231  ekin = 9.82525946602325 | epot = 0 | erot = 15.3599493696744 | etot = 25.1852088356976
232  ekin = 9.82525946602325 | epot = 0 | erot = 15.3599495732409 | etot = 25.1852090392642
233  ekin = 9.82525946602325 | epot = 0 | erot = 15.3599497751741 | etot = 25.1852092411973
234  ekin = 9.82525946602325 | epot = 0 | erot = 15.3599499754474 | etot = 25.1852094414707
235  ekin = 9.82525946602325 | epot = 0 | erot = 15.359950174036 | etot = 25.1852096400592
236  ekin = 9.82525946602325 | epot = 0 | erot = 15.359950370916 | etot = 25.1852098369393
237  ekin = 9.82525946602325 | epot = 0 | erot = 15.3599505660652 | etot = 25.1852100320885
238  ekin = 9.82525946602325 | epot = 0 | erot = 15.3599507594626 | etot = 25.1852102254859
239  ekin = 9.82525946602325 | epot = 0 | erot = 15.3599509510884 | etot = 25.1852104171117
240  ekin = 9.82525946602325 | epot = 0 | erot = 15.3599511409244 | etot = 25.1852106069476
241  ekin = 9.82525946602325 | epot = 0 | erot = 15.3599513289533 | etot = 25.1852107949766
242  ekin = 9.82525946602325 | epot = 0 | erot = 15.3599515151596 | etot = 25.1852109811829
243  ekin = 9.82525946602325 | epot = 0 | erot = 15.3599516995288 | etot = 25.185211165552
244  ekin = 9.82525946602325 | epot = 0 | erot = 15.3599518820476 | etot = 25.1852113480708
245  ekin = 9.82525946602325 | epot = 0 | erot = 15.3599520627041 | etot = 25.1852115287273
246  ekin = 9.82525946602325 | epot = 0 | erot = 15.3599522414876 | etot = 25.1852117075108
247  ekin = 9.82525946602325 | epot = 0 | erot = 15.3599524183886 | etot = 25.1852118844118
248  ekin = 9.82525946602325 | epot = 0 | erot = 15.3599525933988 | etot = 25.1852120594221
249  ekin = 9.82525946602325 | epot = 0 | erot = 15.3599527665111 | etot = 25.1852122325344
250  ekin = 9.82525946602325 | epot = 0 | erot = 15.3599529377197 | etot = 25.1852124037429
251  ekin = 9.82525946602325 | epot = 0 | erot = 15.3599531070195 | etot = 25.1852125730428
252  ekin = 9.82525946602325 | epot = 0 | erot = 15.359953274407 | etot = 25.1852127404302
253  ekin = 9.82525946602325 | epot = 0 | erot = 15.3599534398794 | etot = 25.1852129059026
254  ekin = 9.82525946602325 | epot = 0 | erot = 15.3599536034352 | etot = 25.1852130694584
255  ekin = 9.82525946602325 | epot = 0 | erot = 15.3599537650739 | etot = 25.1852132310971
256  ekin = 9.82525946602325 | epot = 0 | erot = 15.3599539247958 | etot = 25.1852133908191
257  ekin = 9.82525946602325 | epot = 0 | erot = 15.3599540826025 | etot = 25.1852135486257
258  ekin = 9.82525946602325 | epot = 0 | erot = 15.3599542384963 | etot = 25.1852137045195
259  ekin = 9.82525946602325 | epot = 0 | erot = 15.3599543924805 | etot = 25.1852138585038
260  ekin = 9.82525946602325 | epot = 0 | erot = 15.3599545445593 | etot = 25.1852140105826
261  ekin = 9.82525946602325 | epot = 0 | erot = 15.3599546947378 | etot = 25.1852141607611
262  ekin = 9.82525946602325 | epot = 0 | erot = 15.3599548430219 | etot = 25.1852143090452
263  ekin = 9.82525946602325 | epot = 0 | erot = 15.3599549894183 | etot = 25.1852144554415
264  ekin = 9.82525946602325 | epot = 0 | erot = 15.3599551339344 | etot = 25.1852145999576
265  ekin = 9.82525946602325 | epot = 0 | erot = 15.3599552765785 | etot = 25.1852147426018
266  ekin = 9.82525946602325 | epot = 0 | erot = 15.3599554173596 | etot = 25.1852148833828
267  ekin = 9.82525946602325 | epot = 0 | erot = 15.3599555562872 | etot = 25.1852150223105
268  ekin = 9.82525946602325 | epot = 0 | erot = 15.3599556933718 | etot = 25.1852151593951
269  ekin = 9.82525946602325 | epot = 0 | erot = 15.3599558286243 | etot = 25.1852152946475
270  ekin = 9.82525946602325 | epot = 0 | erot = 15.3599559620561 | etot = 25.1852154280794
271  ekin = 9.82525946602325 | epot = 0 | erot = 15.3599560936795 | etot = 25.1852155597028
272  ekin = 9.82525946602325 | epot = 0 | erot = 15.3599562235072 | etot = 25.1852156895305
273  ekin = 9.82525946602325 | epot = 0 | erot = 15.3599563515524 | etot = 25.1852158175756
274  ekin = 9.82525946602325 | epot = 0 | erot = 15.3599564778287 | etot = 25.185215943852
275  ekin = 9.82525946602325 | epot = 0 | erot = 15.3599566023504 | etot = 25.1852160683737
276  ekin = 9.82525946602325 | epot = 0 | erot = 15.3599567251322 | etot = 25.1852161911554
277  ekin = 9.82525946602325 | epot = 0 | erot = 15.359956846189 | etot = 25.1852163122123
278  ekin = 9.82525946602325 | epot = 0 | erot = 15.3599569655364 | etot = 25.1852164315597
279  ekin = 9.82525946602325 | epot = 0 | erot = 15.3599570831902 | etot = 25.1852165492135
280  ekin = 9.82525946602325 | epot = 0 | erot = 15.3599571991666 | etot = 25.1852166651899
281  ekin = 9.82525946602325 | epot = 0 | erot = 15.3599573134821 | etot = 25.1852167795054
282  ekin = 9.82525946602325 | epot = 0 | erot = 15.3599574261535 | etot = 25.1852168921768
283  ekin = 9.82525946602325 | epot = 0 | erot = 15.359957537198 | etot = 25.1852170032212
284  ekin = 9.82525946602325 | epot = 0 | erot = 15.3599576466328 | etot = 25.1852171126561
285  ekin = 9.82525946602325 | epot = 0 | erot = 15.3599577544757 | etot = 25.185217220499
286  ekin = 9.82525946602325 | epot = 0 | erot = 15.3599578607444 | etot = 25.1852173267677
287  ekin = 9.82525946602325 | epot = 0 | erot = 15.359957965457 | etot = 25.1852174314803
288  ekin = 9.82525946602325 | epot = 0 | erot = 15.3599580686317 | etot = 25.185217534655
289  ekin = 9.82525946602325 | epot = 0 | erot = 15.3599581702869 | etot = 25.1852176363101
290  ekin = 9.82525946602325 | epot = 0 | erot = 15.3599582704411 | etot = 25.1852177364643
291  ekin = 9.82525946602325 | epot = 0 | erot = 15.3599583691129 | etot = 25.1852178351361
292  ekin = 9.82525946602325 | epot = 0 | erot = 15.3599584663211 | etot = 25.1852179323444
293  ekin = 9.82525946602325 | epot = 0 | erot = 15.3599585620847 | etot = 25.1852180281079
294  ekin = 9.82525946602325 | epot = 0 | erot = 15.3599586564225 | etot = 25.1852181224457
295  ekin = 9.82525946602325 | epot = 0 | erot = 15.3599587493535 | etot = 25.1852182153768
296  ekin = 9.82525946602325 | epot = 0 | erot = 15.3599588408969 | etot = 25.1852183069202
297  ekin = 9.82525946602325 | epot = 0 | erot = 15.3599589310717 | etot = 25.185218397095
298  ekin = 9.82525946602325 | epot = 0 | erot = 15.3599590198971 | etot = 25.1852184859204
299  ekin = 9.82525946602325 | epot = 0 | erot = 15.3599591073923 | etot = 25.1852185734155
300  ekin = 9.82525946602325 | epot = 0 | erot = 15.3599591935763 | etot = 25.1852186595995
301  ekin = 9.82525946602325 | epot = 0 | erot = 15.3599592784683 | etot = 25.1852187444915
302  ekin = 9.82525946602325 | epot = 0 | erot = 15.3599593620874 | etot = 25.1852188281107
303  ekin = 9.82525946602325 | epot = 0 | erot = 15.3599594444528 | etot = 25.1852189104761
304  ekin = 9.82525946602325 | epot = 0 | erot = 15.3599595255835 | etot = 25.1852189916067
305  ekin = 9.82525946602325 | epot = 0 | erot = 15.3599596054984 | etot = 25.1852190715217
306  ekin = 9.82525946602325 | epot = 0 | erot = 15.3599596842166 | etot = 25.1852191502398
307  ekin = 9.82525946602325 | epot = 0 | erot = 15.3599597617569 | etot = 25.1852192277801
308  ekin = 9.82525946602325 | epot = 0 | erot = 15.3599598381381 | etot = 25.1852193041613
309  ekin = 9.82525946602325 | epot = 0 | erot = 15.3599599133789 | etot = 25.1852193794022
310  ekin = 9.82525946602325 | epot = 0 | erot = 15.359959987498 | etot = 25.1852194535212
311  ekin = 9.82525946602325 | epot = 0 | erot = 15.3599600605139 | etot = 25.1852195265372
312  ekin = 9.82525946602325 | epot = 0 | erot = 15.3599601324451 | etot = 25.1852195984683
313  ekin = 9.82525946602325 | epot = 0 | erot = 15.3599602033098 | etot = 25.185219669333
314  ekin = 9.82525946602325 | epot = 0 | erot = 15.3599602731263 | etot = 25.1852197391496
315  ekin = 9.82525946602325 | epot = 0 | erot = 15.3599603419127 | etot = 25.185219807936
316  ekin = 9.82525946602325 | epot = 0 | erot = 15.359960409687 | etot = 25.1852198757103
317  ekin = 9.82525946602325 | epot = 0 | erot = 15.359960476467 | etot = 25.1852199424903
318  ekin = 9.82525946602325 | epot = 0 | erot = 15.3599605422705 | etot = 25.1852200082938
319  ekin = 9.82525946602325 | epot = 0 | erot = 15.359960607115 | etot = 25.1852200731383
320  ekin = 9.82525946602325 | epot = 0 | erot = 15.359960671018 | etot = 25.1852201370413
321  ekin = 9.82525946602325 | epot = 0 | erot = 15.3599607339969 | etot = 25.1852202000201
322  ekin = 9.82525946602325 | epot = 0 | erot = 15.3599607960687 | etot = 25.1852202620919
323  ekin = 9.82525946602325 | epot = 0 | erot = 15.3599608572505 | etot = 25.1852203232738
324  ekin = 9.82525946602325 | epot = 0 | erot = 15.3599609175593 | etot = 25.1852203835825
325  ekin = 9.82525946602325 | epot = 0 | erot = 15.3599609770116 | etot = 25.1852204430349
326  ekin = 9.82525946602325 | epot = 0 | erot = 15.3599610356242 | etot = 25.1852205016474
327  ekin = 9.82525946602325 | epot = 0 | erot = 15.3599610934134 | etot = 25.1852205594367
328  ekin = 9.82525946602325 | epot = 0 | erot = 15.3599611503956 | etot = 25.1852206164188
329  ekin = 9.82525946602325 | epot = 0 | erot = 15.3599612065868 | etot = 25.18522067261
330  ekin = 9.82525946602325 | epot = 0 | erot = 15.359961262003 | etot = 25.1852207280263
331  ekin = 9.82525946602325 | epot = 0 | erot = 15.3599613166601 | etot = 25.1852207826834
332  ekin = 9.82525946602325 | epot = 0 | erot = 15.3599613705737 | etot = 25.185220836597
333  ekin = 9.82525946602325 | epot = 0 | erot = 15.3599614237594 | etot = 25.1852208897826
334  ekin = 9.82525946602325 | epot = 0 | erot = 15.3599614762324 | etot = 25.1852209422557
335  ekin = 9.82525946602325 | epot = 0 | erot = 15.359961528008 | etot = 25.1852209940313
336  ekin = 9.82525946602325 | epot = 0 | erot = 15.3599615791013 | etot = 25.1852210451245
337  ekin = 9.82525946602325 | epot = 0 | erot = 15.3599616295271 | etot = 25.1852210955504
338  ekin = 9.82525946602325 | epot = 0 | erot = 15.3599616793002 | etot = 25.1852211453235
339  ekin = 9.82525946602325 | epot = 0 | erot = 15.3599617284352 | etot = 25.1852211944584
340  ekin = 9.82525946602325 | epot = 0 | erot = 15.3599617769465 | etot = 25.1852212429697
341  ekin = 9.82525946602325 | epot = 0 | erot = 15.3599618248484 | etot = 25.1852212908717
342  ekin = 9.82525946602325 | epot = 0 | erot = 15.3599618721552 | etot = 25.1852213381784
343  ekin = 9.82525946602325 | epot = 0 | erot = 15.3599619188806 | etot = 25.1852213849039
344  ekin = 9.82525946602325 | epot = 0 | erot = 15.3599619650388 | etot = 25.185221431062
345  ekin = 9.82525946602325 | epot = 0 | erot = 15.3599620106433 | etot = 25.1852214766665
346  ekin = 9.82525946602325 | epot = 0 | erot = 15.3599620557077 | etot = 25.185221521731
347  ekin = 9.82525946602325 | epot = 0 | erot = 15.3599621002455 | etot = 25.1852215662688
348  ekin = 9.82525946602325 | epot = 0 | erot = 15.35996214427 | etot = 25.1852216102933
349  ekin = 9.82525946602325 | epot = 0 | erot = 15.3599621877943 | etot = 25.1852216538176
350  ekin = 9.82525946602325 | epot = 0 | erot = 15.3599622308315 | etot = 25.1852216968548
351  ekin = 9.82525946602325 | epot = 0 | erot = 15.3599622733945 | etot = 25.1852217394177
352  ekin = 9.82525946602325 | epot = 0 | erot = 15.359962315496 | etot = 25.1852217815192
353  ekin = 9.82525946602325 | epot = 0 | erot = 15.3599623571487 | etot = 25.1852218231719
354  ekin = 9.82525946602325 | epot = 0 | erot = 15.3599623983651 | etot = 25.1852218643883
355  ekin = 9.82525946602325 | epot = 0 | erot = 15.3599624391576 | etot = 25.1852219051809
356  ekin = 9.82525946602325 | epot = 0 | erot = 15.3599624795385 | etot = 25.1852219455618
357  ekin = 9.82525946602325 | epot = 0 | erot = 15.35996251952 | etot = 25.1852219855432
358  ekin = 9.82525946602325 | epot = 0 | erot = 15.3599625591141 | etot = 25.1852220251373
359  ekin = 9.82525946602325 | epot = 0 | erot = 15.3599625983327 | etot = 25.185222064356
360  ekin = 9.82525946602325 | epot = 0 | erot = 15.3599626371877 | etot = 25.185222103211
361  ekin = 9.82525946602325 | epot = 0 | erot = 15.3599626756909 | etot = 25.1852221417141
362  ekin = 9.82525946602325 | epot = 0 | erot = 15.3599627138537 | etot = 25.185222179877
363  ekin = 9.82525946602325 | epot = 0 | erot = 15.3599627516878 | etot = 25.1852222177111
364  ekin = 9.82525946602325 | epot = 0 | erot = 15.3599627892047 | etot = 25.1852222552279
365  ekin = 9.82525946602325 | epot = 0 | erot = 15.3599628264155 | etot = 25.1852222924387
366  ekin = 9.82525946602325 | epot = 0 | erot = 15.3599628633315 | etot = 25.1852223293548
367  ekin = 9.82525946602325 | epot = 0 | erot = 15.359962899964 | etot = 25.1852223659873
368  ekin = 9.82525946602325 | epot = 0 | erot = 15.3599629363239 | etot = 25.1852224023472
369  ekin = 9.82525946602325 | epot = 0 | erot = 15.3599629724223 | etot = 25.1852224384456
370  ekin = 9.82525946602325 | epot = 0 | erot = 15.3599630082701 | etot = 25.1852224742933
371  ekin = 9.82525946602325 | epot = 0 | erot = 15.3599630438779 | etot = 25.1852225099012
372  ekin = 9.82525946602325 | epot = 0 | erot = 15.3599630792568 | etot = 25.18522254528
373  ekin = 9.82525946602325 | epot = 0 | erot = 15.3599631144172 | etot = 25.1852225804404
374  ekin = 9.82525946602325 | epot = 0 | erot = 15.3599631493698 | etot = 25.1852226153931
375  ekin = 9.82525946602325 | epot = 0 | erot = 15.3599631841252 | etot = 25.1852226501485
376  ekin = 9.82525946602325 | epot = 0 | erot = 15.3599632186939 | etot = 25.1852226847171
377  ekin = 9.82525946602325 | epot = 0 | erot = 15.3599632530862 | etot = 25.1852227191095
378  ekin = 9.82525946602325 | epot = 0 | erot = 15.3599632873126 | etot = 25.1852227533358
379  ekin = 9.82525946602325 | epot = 0 | erot = 15.3599633213833 | etot = 25.1852227874066
380  ekin = 9.82525946602325 | epot = 0 | erot = 15.3599633553087 | etot = 25.1852228213319
381  ekin = 9.82525946602325 | epot = 0 | erot = 15.3599633890989 | etot = 25.1852228551221
382  ekin = 9.82525946602325 | epot = 0 | erot = 15.3599634227642 | etot = 25.1852228887874
383  ekin = 9.82525946602325 | epot = 0 | erot = 15.3599634563146 | etot = 25.1852229223379
384  ekin = 9.82525946602325 | epot = 0 | erot = 15.3599634897603 | etot = 25.1852229557836
385  ekin = 9.82525946602325 | epot = 0 | erot = 15.3599635231114 | etot = 25.1852229891346
386  ekin = 9.82525946602325 | epot = 0 | erot = 15.3599635563779 | etot = 25.1852230224011
387  ekin = 9.80204077986983 | epot = 0.030401594540108 | erot = 15.3599635895697 | etot = 25.1924059639797
388  ekin = 9.75553475591731 | epot = 0.0769126114356313 | erot = 15.359963622697 | etot = 25.19241099005
389  ekin = 9.70847845947456 | epot = 0.123974432433393 | erot = 15.3599636557697 | etot = 25.1924165476776
390  ekin = 9.66097454352242 | epot = 0.171484402807746 | erot = 15.3599636887976 | etot = 25.1924226351278
391  ekin = 9.61313343899925 | epot = 0.219332084975997 | erot = 15.3599637217908 | etot = 25.1924292457661
392  ekin = 9.5650732083987 | epot = 0.267399404514805 | erot = 15.3599637547592 | etot = 25.1924363676728
393  ekin = 9.51691931972962 | epot = 0.315560875854806 | erot = 15.3599637877127 | etot = 25.1924439832972
394  ekin = 9.46880433598135 | epot = 0.363683912522078 | erot = 15.3599638206612 | etot = 25.1924520691647
395  ekin = 9.42086751602899 | epot = 0.411629226003528 | erot = 15.3599638536146 | etot = 25.1924605956472
396  ekin = 9.37325432387826 | epot = 0.459251316348657 | erot = 15.3599638865829 | etot = 25.1924695268098
397  ekin = 9.32611584428541 | epot = 0.506399056483536 | erot = 15.3599639195759 | etot = 25.1924788203448
398  ekin = 9.27960810408986 | epot = 0.552916370910171 | erot = 15.3599639526036 | etot = 25.1924884276036
399  ekin = 9.23389130005219 | epot = 0.598643008007972 | erot = 15.3599639856758 | etot = 25.192498293736
400  ekin = 9.18912893558059 | epot = 0.643415403562139 | erot = 15.3599640188027 | etot = 25.1925083579454
401  ekin = 9.14548687042987 | epot = 0.687067631440555 | erot = 15.359964051994 | etot = 25.1925185538644
402  ekin = 9.10313228923752 | epot = 0.729432435557872 | erot = 15.3599640852599 | etot = 25.1925288100553
403  ekin = 9.06223259658463 | epot = 0.770342335439385 | erot = 15.3599641186103 | etot = 25.1925390506343
404  ekin = 9.02295424809232 | epot = 0.809630795871008 | erot = 15.3599641520552 | etot = 25.1925491960186
405  ekin = 8.98546152884083 | epot = 0.847133449341911 | erot = 15.3599641856048 | etot = 25.1925591637876
406  ekin = 8.94991529207655 | epot = 0.882689358304625 | erot = 15.3599642192691 | etot = 25.1925688696503
407  ekin = 8.91647167270162 | epot = 0.916142302744282 | erot = 15.3599642530583 | etot = 25.1925782285042
408  ekin = 8.88528079136727 | epot = 0.947342077219005 | erot = 15.3599642869826 | etot = 25.1925871555689
409  ekin = 8.85648546606653 | epot = 0.976145780455171 | erot = 15.3599643210521 | etot = 25.1925955675738
410  ekin = 8.8302199488973 | epot = 1.00241907980401 | erot = 15.3599643552771 | etot = 25.1926033839785
411  ekin = 8.80660870610276 | epot = 1.02603743242683 | erot = 15.359964389668 | etot = 25.1926105281976
412  ekin = 8.78576525956027 | epot = 1.04688724501103 | erot = 15.3599644242352 | etot = 25.1926169288065
413  ekin = 8.76779110756007 | epot = 1.06486695414782 | erot = 15.3599644589889 | etot = 25.1926225206968
414  ekin = 8.75277474197991 | epot = 1.07988801023804 | erot = 15.3599644939398 | etot = 25.1926272461578
415  ekin = 8.74079077782274 | epot = 1.09187574893211 | erot = 15.3599645290984 | etot = 25.1926310558532
416  ekin = 8.73189920955653 | epot = 1.10077013564055 | erot = 15.3599645644752 | etot = 25.1926339096723
417  ekin = 8.72614480680581 | epot = 1.10652637054322 | erot = 15.359964600081 | etot = 25.19263577743
418  ekin = 8.72355665973397 | epot = 1.10911534373993 | erot = 15.3599646359265 | etot = 25.1926366394004
419  ekin = 8.72414788197602 | epot = 1.10852393266862 | erot = 15.3599646720224 | etot = 25.1926364866671
420  ekin = 8.7279154762949 | epot = 1.10475513660834 | erot = 15.3599647083798 | etot = 25.1926353212831
421  ekin = 8.7348403653103 | epot = 1.09782804591396 | erot = 15.3599647450096 | etot = 25.1926331562339
422  ekin = 8.74488758676226 | epot = 1.08777764652125 | erot = 15.3599647819228 | etot = 25.1926300152063
423  ekin = 8.75800664989916 | epot = 1.07465446313897 | erot = 15.3599648191306 | etot = 25.1926259321688
424  ekin = 8.77413204679852 | epot = 1.05852404733084 | erot = 15.3599648566443 | etot = 25.1926209507736
425  ekin = 8.79318390981136 | epot = 1.03946631931237 | erot = 15.359964894475 | etot = 25.1926151235987
426  ekin = 8.81506880393502 | epot = 1.01757477467776 | erot = 15.3599649326343 | etot = 25.1926085112471
427  ekin = 8.83968064082247 | epot = 0.992955569371624 | erot = 15.3599649711337 | etot = 25.1926011813278
428  ekin = 8.86690169937702 | epot = 0.965726497982495 | erot = 15.3599650099848 | etot = 25.1925932073443
429  ekin = 8.89660373649534 | epot = 0.936015881822022 | erot = 15.3599650491993 | etot = 25.1925846675166
430  ekin = 8.92864917053189 | epot = 0.903961384244748 | erot = 15.359965088789 | etot = 25.1925756435656
431  ekin = 8.96289231947383 | epot = 0.86970877124675 | erot = 15.3599651287659 | etot = 25.1925662194864
432  ekin = 8.99918067563401 | epot = 0.833410635561871 | erot = 15.3599651691419 | etot = 25.1925564803378
433  ekin = 9.03735619887528 | epot = 0.795225102267056 | erot = 15.3599652099294 | etot = 25.1925465110717
434  ekin = 9.0772566109458 | epot = 0.755314533338948 | erot = 15.3599652511404 | etot = 25.1925363954252
435  ekin = 9.11871667439647 | epot = 0.713844247709916 | erot = 15.3599652927875 | etot = 25.1925262148939
436  ekin = 9.16156944072577 | epot = 0.670981272193872 | erot = 15.3599653348831 | etot = 25.1925160478027
437  ekin = 9.20564745380497 | epot = 0.626893137241215 | erot = 15.3599653774398 | etot = 25.192505968486
438  ekin = 9.2507838962276 | epot = 0.581746729887619 | erot = 15.3599654204705 | etot = 25.1924960465858
439  ekin = 9.29681366794794 | epot = 0.535707214536933 | erot = 15.359965463988 | etot = 25.1924863464729
440  ekin = 9.34357438837244 | epot = 0.488937030415982 | erot = 15.3599655080054 | etot = 25.1924769267938
441  ekin = 9.3909073148967 | epot = 0.441594972707263 | erot = 15.3599655525357 | etot = 25.1924678401397
442  ekin = 9.43865817269219 | epot = 0.393835362551006 | erot = 15.3599655975923 | etot = 25.1924591328355
443  ekin = 9.48667789230222 | epot = 0.345807309350704 | erot = 15.3599656431886 | etot = 25.1924508448415
444  ekin = 9.53482325326969 | epot = 0.297654067151079 | erot = 15.3599656893381 | etot = 25.1924430097589
445  ekin = 9.58295743356162 | epot = 0.249512485313343 | erot = 15.3599657360546 | etot = 25.1924356549296
446  ekin = 9.63095046595574 | epot = 0.201512552311608 | erot = 15.3599657833519 | etot = 25.1924288016193
447  ekin = 9.67867960379561 | epot = 0.153777030232284 | erot = 15.359965831244 | etot = 25.1924224652719
448  ekin = 9.72602959959362 | epot = 0.106421176485096 | erot = 15.3599658797451 | etot = 25.1924166558238
449  ekin = 9.77289290086165 | epot = 0.0595525483342114 | erot = 15.3599659288693 | etot = 25.1924113780651
450  ekin = 9.81916976827693 | epot = 0.0132708851304793 | erot = 15.3599659786312 | etot = 25.1924066320386
451  ekin = 9.84226212647712 | epot = 0 | erot = 15.3599660290453 | etot = 25.2022281555224
452  ekin = 9.84226212647712 | epot = 0 | erot = 15.3599660801263 | etot = 25.2022282066034
453  ekin = 9.84226212647712 | epot = 0 | erot = 15.3599661318891 | etot = 25.2022282583663
454  ekin = 9.84226212647712 | epot = 0 | erot = 15.3599661843488 | etot = 25.202228310826
455  ekin = 9.84226212647712 | epot = 0 | erot = 15.3599662375206 | etot = 25.2022283639977
456  ekin = 9.84226212647712 | epot = 0 | erot = 15.3599662914197 | etot = 25.2022284178969
457  ekin = 9.82706009353483 | epot = 0.0302166811706297 | erot = 15.3599663460617 | etot = 25.2172431207672
458  ekin = 9.79714397884713 | epot = 0.0601385136446522 | erot = 15.3599664014622 | etot = 25.217248893954
459  ekin = 9.76778140527279 | epot = 0.0895068943660458 | erot = 15.3599664576371 | etot = 25.2172547572759
460  ekin = 9.739064320298 | epot = 0.118229844660417 | erot = 15.3599665146021 | etot = 25.2172606795606
461  ekin = 9.71108527837351 | epot = 0.146214776879741 | erot = 15.3599665723736 | etot = 25.2172666276269
462  ekin = 9.68393694140599 | epot = 0.173368994148368 | erot = 15.3599666309677 | etot = 25.2172725665221
463  ekin = 9.65771155393103 | epot = 0.199600215466554 | erot = 15.3599666904008 | etot = 25.2172784597984
464  ekin = 9.6325003970628 | epot = 0.224817122074777 | erot = 15.3599667506896 | etot = 25.2172842698272
465  ekin = 9.6083932258535 | epot = 0.248929920442649 | erot = 15.3599668118506 | etot = 25.2172899581468
466  ekin = 9.58547769519247 | epot = 0.271850916748786 | erot = 15.3599668739008 | etot = 25.2172954858421
467  ekin = 9.56383877981454 | epot = 0.2934950972774 | erot = 15.3599669368572 | etot = 25.2173008139492
468  ekin = 9.5435581943586 | epot = 0.313780708784976 | erot = 15.3599670007369 | etot = 25.2173059038805
469  ekin = 9.52471381970725 | epot = 0.332629832599874 | erot = 15.3599670655572 | etot = 25.2173107178644
470  ekin = 9.5073791420358 | epot = 0.34996894601951 | erot = 15.3599671313356 | etot = 25.2173152193909
471  ekin = 9.49162271109508 | epot = 0.365729464473312 | erot = 15.3599671980895 | etot = 25.2173193736579
472  ekin = 9.47750762423893 | epot = 0.379848257932488 | erot = 15.3599672658368 | etot = 25.2173231480082
473  ekin = 9.46509104258024 | epot = 0.392268135174903 | erot = 15.3599673345951 | etot = 25.2173265123503
474  ekin = 9.45442374541571 | epot = 0.402938289756757 | erot = 15.3599674043826 | etot = 25.217329439555
475  ekin = 9.44554972870009 | epot = 0.411814701902597 | erot = 15.3599674752172 | etot = 25.2173319058198
476  ekin = 9.43850585287925 | epot = 0.418860490997128 | erot = 15.3599675471171 | etot = 25.2173338909935
477  ekin = 9.43332154481413 | epot = 0.424046213939901 | erot = 15.3599676201007 | etot = 25.2173353788547
478  ekin = 9.43001855785463 | epot = 0.427350105298216 | erot = 15.3599676941863 | etot = 25.2173363573391
479  ekin = 9.4286107933657 | epot = 0.428758255951116 | erot = 15.3599677693925 | etot = 25.2173368187093
480  ekin = 9.42910418618183 | epot = 0.428264727744716 | erot = 15.3599678457378 | etot = 25.2173367596643
481  ekin = 9.43149665558812 | epot = 0.425871602558229 | erot = 15.359967923241 | etot = 25.2173361813874
482  ekin = 9.43577812251397 | epot = 0.421588965093775 | erot = 15.3599680019209 | etot = 25.2173350895286
483  ekin = 9.42540340745765 | epot = 0.440894881189353 | erot = 15.3599680817962 | etot = 25.2262663704432
484  ekin = 9.40081233007693 | epot = 0.465489363877848 | erot = 15.3599681628859 | etot = 25.2262698568407
485  ekin = 9.37845839022777 | epot = 0.487846374664969 | erot = 15.359968245209 | etot = 25.2262730101017
486  ekin = 9.35839683330704 | epot = 0.507910661984694 | erot = 15.3599683287845 | etot = 25.2262758240762
487  ekin = 9.34067724426897 | epot = 0.525632635989387 | erot = 15.3599684136314 | etot = 25.2262782938898
488  ekin = 9.32534344807508 | epot = 0.540968467913091 | erot = 15.3599684997689 | etot = 25.226280415757
489  ekin = 9.31243342706405 | epot = 0.553880172515756 | erot = 15.359968587216 | etot = 25.2262821867958
490  ekin = 9.30197925271809 | epot = 0.564335676140085 | erot = 15.359968675992 | etot = 25.2262836048501
491  ekin = 9.2940070294324 | epot = 0.57230887278162 | erot = 15.3599687661158 | etot = 25.2262846683298
492  ekin = 9.28853684813294 | epot = 0.577779670334108 | erot = 15.3599688576067 | etot = 25.2262853760737
493  ekin = 9.28558274792263 | epot = 0.580734028835662 | erot = 15.3599689504836 | etot = 25.2262857272419
494  ekin = 9.28515268435594 | epot = 0.581163992120656 | erot = 15.3599690447657 | etot = 25.2262857212423
495  ekin = 9.2872485034274 | epot = 0.579067713795204 | erot = 15.359969140472 | etot = 25.2262853576946
496  ekin = 9.29186592089178 | epot = 0.57444947792019 | erot = 15.3599692376213 | etot = 25.2262846364332
497  ekin = 9.29899450708997 | epot = 0.567319714228007 | erot = 15.3599693362324 | etot = 25.2262835575504
498  ekin = 9.30861767801254 | epot = 0.557695007139791 | erot = 15.3599694363243 | etot = 25.2262821214766
499  ekin = 9.32071269386767 | epot = 0.545598097313117 | erot = 15.3599695379154 | etot = 25.2262803290962
500  ekin = 9.31952214519016 | epot = 0.556599221684012 | erot = 15.3599696410243 | etot = 25.2360910078985
501  ekin = 212919.960031829 | epot = 27424.459737135 | erot = 15.3599697456693 | etot = 240359.779738709
502  ekin = 850570.989046927 | epot = 6.98057660871801 | erot = 15.3599698518687 | etot = 850593.329593387
503  ekin = 850571.029416444 | epot = 0.508523202084676 | erot = 15.3599699596405 | etot = 850586.897909605
504  ekin = 850571.020519665 | epot = 0.517422210152119 | erot = 15.3599700690024 | etot = 850586.897911944
505  ekin = 850571.013449823 | epot = 0.524493833928478 | erot = 15.3599701799721 | etot = 850586.897913837
506  ekin = 850571.008235156 | epot = 0.529709822568994 | erot = 15.3599702925669 | etot = 850586.897915271
507  ekin = 850571.00489658 | epot = 0.533049247231533 | erot = 15.3599704068039 | etot = 850586.897916234
508  ekin = 850571.003447528 | epot = 0.534498668045768 | erot = 15.3599705227 | etot = 850586.897916719
509  ekin = 850571.003893841 | epot = 0.534052241795219 | erot = 15.3599706402717 | etot = 850586.897916723
510  ekin = 850571.006233718 | epot = 0.531711768845751 | erot = 15.359970759535 | etot = 850586.897916246
511  ekin = 850571.010457736 | epot = 0.527486678679168 | erot = 15.359970880506 | etot = 850586.897915295
512  ekin = 850571.016548921 | epot = 0.521393954229621 | erot = 15.3599710031999 | etot = 850586.897913878
513  ekin = 850571.024482884 | epot = 0.513457996055603 | erot = 15.359971127632 | etot = 850586.897912008
514  ekin = 850571.034228018 | epot = 0.503710428193449 | erot = 15.3599712538169 | etot = 850586.8979097
515  ekin = 850571.045745747 | epot = 0.49218984831324 | erot = 15.3599713817686 | etot = 850586.897906977
516  ekin = 850571.058990823 | epot = 0.478941525519645 | erot = 15.3599715115011 | etot = 850586.897903861
517  ekin = 850571.073911684 | epot = 0.464017049792872 | erot = 15.3599716430275 | etot = 850586.897900377
518  ekin = 850571.090450841 | epot = 0.447473937638689 | erot = 15.3599717763605 | etot = 850586.897896555
519  ekin = 850571.108545315 | epot = 0.429375198999463 | erot = 15.3599719115122 | etot = 850586.897892426
520  ekin = 850571.128127102 | epot = 0.409788870864435 | erot = 15.3599720484944 | etot = 850586.897888021
521  ekin = 850571.149123666 | epot = 0.388787523301282 | erot = 15.3599721873178 | etot = 850586.897883376
522  ekin = 850571.171458454 | epot = 0.366447743811252 | erot = 15.359972327993 | etot = 850586.897878526
523  ekin = 850571.195051429 | epot = 0.342849605986109 | erot = 15.3599724705295 | etot = 850586.897873505
524  ekin = 850571.219819607 | epot = 0.318076128421017 | erot = 15.3599726149363 | etot = 850586.89786835
525  ekin = 850571.245677606 | epot = 0.292212729717388 | erot = 15.3599727612218 | etot = 850586.897863097
526  ekin = 850571.272538186 | epot = 0.265346685201896 | erot = 15.3599729093934 | etot = 850586.89785778
527  ekin = 850571.300312784 | epot = 0.237566590699682 | erot = 15.3599730594579 | etot = 850586.897852435
528  ekin = 850571.328912043 | epot = 0.208961838343792 | erot = 15.3599732114212 | etot = 850586.897847093
529  ekin = 850571.358246312 | epot = 0.179622108987136 | erot = 15.3599733652886 | etot = 850586.897841787
530  ekin = 850571.38822614 | epot = 0.149636885322463 | erot = 15.3599735210641 | etot = 850586.897836546
531  ekin = 850571.418762731 | epot = 0.11909498931953 | erot = 15.3599736787512 | etot = 850586.897831399
532  ekin = 850571.434169878 | epot = 0.106536148146303 | erot = 15.3599738383524 | etot = 850586.900679865
533  ekin = 850571.43470776 | epot = 0.105997699935278 | erot = 15.359973999869 | etot = 850586.90067946
534  ekin = 850571.435816517 | epot = 0.104888694874181 | erot = 15.3599741633018 | etot = 850586.900679376
535  ekin = 850571.421612907 | epot = 0.110122098711842 | erot = 15.3599743286501 | etot = 850586.891709335
536  ekin = 850571.391817114 | epot = 0.139922777348599 | erot = 15.3599744959125 | etot = 850586.891714387
537  ekin = 850571.362534766 | epot = 0.169210102729423 | erot = 15.3599746650865 | etot = 850586.891719534
538  ekin = 850571.322091502 | epot = 0.210130745912572 | erot = 15.3599748361684 | etot = 850586.892197084
539  ekin = 850571.271090922 | epot = 0.261140349606743 | erot = 15.3599750091535 | etot = 850586.89220628
540  ekin = 850571.221466832 | epot = 0.310773488460198 | erot = 15.3599751840358 | etot = 850586.892215505
541  ekin = 850571.173367589 | epot = 0.358881758382742 | erot = 15.3599753608085 | etot = 850586.892224708
542  ekin = 850571.126940651 | epot = 0.405317647438602 | erot = 15.3599755394633 | etot = 850586.892233838
543  ekin = 850571.082331797 | epot = 0.449935325794056 | erot = 15.3599757199909 | etot = 850586.892242842
544  ekin = 850571.025547056 | epot = 0.517526806652688 | erot = 15.3599759023806 | etot = 850586.903049765
545  ekin = 850570.956858633 | epot = 0.586226244690611 | erot = 15.3599760866207 | etot = 850586.903060965
546  ekin = 850570.890431585 | epot = 0.652664175505876 | erot = 15.359976272698 | etot = 850586.903072033
547  ekin = 850570.826443285 | epot = 0.716663166915619 | erot = 15.3599764605982 | etot = 850586.903082913
548  ekin = 850570.765067591 | epot = 0.778049307844507 | erot = 15.3599766503057 | etot = 850586.903093549
549  ekin = 850570.706473978 | epot = 0.836653065929587 | erot = 15.3599768418036 | etot = 850586.903103886
550  ekin = 850570.650826688 | epot = 0.892310143481273 | erot = 15.3599770350736 | etot = 850586.903113867
551  ekin = 850570.598283883 | epot = 0.944862324929298 | erot = 15.3599772300962 | etot = 850586.903123438
552  ekin = 850570.54899681 | epot = 0.994158308753102 | erot = 15.3599774268505 | etot = 850586.903132546
553  ekin = 850570.503108996 | epot = 1.0400545168526 | erot = 15.3599776253143 | etot = 850586.903141139
554  ekin = 850570.460755468 | epot = 1.08241587435877 | erot = 15.3599778254641 | etot = 850586.903149168
555  ekin = 850570.422062007 | epot = 1.12111655301885 | erot = 15.359978027275 | etot = 850586.903156588
556  ekin = 850570.387144452 | epot = 1.15604067151547 | erot = 15.3599782307207 | etot = 850586.903163355
557  ekin = 850570.356108047 | epot = 1.1870829463921 | erot = 15.3599784357737 | etot = 850586.903169429
558  ekin = 850570.329046846 | epot = 1.21414928765576 | erot = 15.3599786424051 | etot = 850586.903174777
559  ekin = 850570.306043181 | epot = 1.23715733360633 | erot = 15.3599788505846 | etot = 850586.903179365
560  ekin = 850570.287167189 | epot = 1.25603691999386 | erot = 15.3599790602808 | etot = 850586.903183169
561  ekin = 850570.272476416 | epot = 1.27073047922271 | erot = 15.3599792714606 | etot = 850586.903186166
562  ekin = 850570.26201549 | epot = 1.28119336599582 | erot = 15.3599794840899 | etot = 850586.90318834
563  ekin = 850570.255815875 | epot = 1.28739410651221 | erot = 15.3599796981332 | etot = 850586.90318968
564  ekin = 850570.253895696 | epot = 1.28931456908718 | erot = 15.3599799135538 | etot = 850586.903190179
565  ekin = 850570.256259652 | epot = 1.28695005484368 | erot = 15.3599801303137 | etot = 850586.903189837
566  ekin = 850570.262899002 | epot = 1.2803093079156 | erot = 15.3599803483736 | etot = 850586.903188658
567  ekin = 850570.273791639 | epot = 1.26941444539566 | erot = 15.3599805676931 | etot = 850586.903186652
568  ekin = 850570.288902238 | epot = 1.25430080804148 | erot = 15.3599807882305 | etot = 850586.903183835
569  ekin = 850570.308182481 | epot = 1.2350167335129 | erot = 15.359981009943 | etot = 850586.903180225
570  ekin = 850570.33157136 | epot = 1.21162325463892 | erot = 15.3599812327868 | etot = 850586.903175847
571  ekin = 850570.358995549 | epot = 1.18419372589766 | erot = 15.3599814567168 | etot = 850586.903170731
572  ekin = 850570.390369847 | epot = 1.15281338192568 | erot = 15.3599816816868 | etot = 850586.90316491
573  ekin = 850570.425597681 | epot = 1.11757883244862 | erot = 15.3599819076499 | etot = 850586.903158421
574  ekin = 850570.464571672 | epot = 1.07859749853587 | erot = 15.3599821345579 | etot = 850586.903151305
575  ekin = 850570.507174247 | epot = 1.03598699552425 | erot = 15.3599823623618 | etot = 850586.903143605
576  ekin = 850570.553278308 | epot = 0.989874468324505 | erot = 15.3599825910116 | etot = 850586.903135368
577  ekin = 850570.602747936 | epot = 0.940395885118135 | erot = 15.3599828204566 | etot = 850586.903126642
578  ekin = 850570.655439132 | epot = 0.887695295669877 | erot = 15.359983050645 | etot = 850586.903117478
579  ekin = 850570.711200586 | epot = 0.831924060622522 | erot = 15.3599832815247 | etot = 850586.903107929
580  ekin = 850570.769874475 | epot = 0.773240058207043 | erot = 15.3599835130424 | etot = 850586.903098046
581  ekin = 850570.819207351 | epot = 0.728530134842889 | erot = 15.3599837451444 | etot = 850586.907721231
582  ekin = 850570.858533276 | epot = 0.689197617352671 | erot = 15.3599839777763 | etot = 850586.907714871
583  ekin = 850570.899790769 | epot = 0.647933329608511 | erot = 15.3599842108834 | etot = 850586.907708309
584  ekin = 850570.942869628 | epot = 0.604847507991462 | erot = 15.35998444441 | etot = 850586.907701581
585  ekin = 850570.987656684 | epot = 0.560053357434143 | erot = 15.3599846783005 | etot = 850586.907694719
586  ekin = 850571.034036319 | epot = 0.513666526938091 | erot = 15.3599849124985 | etot = 850586.907687759
587  ekin = 850571.081890999 | epot = 0.465804587008416 | erot = 15.3599851469474 | etot = 850586.907680733
588  ekin = 850571.131101781 | epot = 0.416586512498666 | erot = 15.3599853815906 | etot = 850586.907673675
589  ekin = 850571.181548826 | epot = 0.366132174198201 | erot = 15.3599856163708 | etot = 850586.907666616
590  ekin = 850571.233111895 | epot = 0.314561842305983 | erot = 15.359985851231 | etot = 850586.907659588
591  ekin = 850571.271118438 | epot = 0.281436813985565 | erot = 15.3599860861138 | etot = 850586.912541338
592  ekin = 850571.295406027 | epot = 0.257144378466182 | erot = 15.359986320962 | etot = 850586.912536727
593  ekin = 850571.320638386 | epot = 0.231907111244128 | erot = 15.3599865557184 | etot = 850586.912532053
594  ekin = 850571.346735425 | epot = 0.205805130383975 | erot = 15.3599867903256 | etot = 850586.912527346
595  ekin = 850571.373616254 | epot = 0.17891935587942 | erot = 15.3599870247268 | etot = 850586.912522635
596  ekin = 850571.401199624 | epot = 0.151331064791616 | erot = 15.3599872588651 | etot = 850586.912517948
597  ekin = 850571.429404354 | epot = 0.123121463283005 | erot = 15.3599874926841 | etot = 850586.91251331
598  ekin = 850571.458149742 | epot = 0.094371278657941 | erot = 15.3599877261275 | etot = 850586.912508747
599  ekin = 850571.487355948 | epot = 0.0651603741010354 | erot = 15.3599879591396 | etot = 850586.912504281
600  ekin = 8.95683501090654 | epot = 0.0355673883723067 | erot = 11.1630762613997 | etot = 20.1554786606786
601  ekin = 21146.7097109671 | epot = 9453.14356337417 | erot = 11.1630764160558 | etot = 30611.0163507573
602  ekin = 84735.0911255909 | epot = 109.721890775104 | erot = 11.1630765703148 | etot = 84855.9760929364
603  ekin = 84566.1925877534 | epot = 607.665516926472 | erot = 11.1630767241408 | etot = 85185.0211814041
604  ekin = 84717.0117211755 | epot = 127.2544541705 | erot = 11.1630768774986 | etot = 84855.4292522235
605  ekin = 84913.1593243917 | epot = 0.631680339523014 | erot = 11.1630770303534 | etot = 84924.9540817616
606  ekin = 84917.930512496 | epot = 0 | erot = 11.1630771826708 | etot = 84929.0935896787
607  ekin = 84917.930512496 | epot = 0 | erot = 11.163077334417 | etot = 84929.0935898305
608  ekin = 84917.930512496 | epot = 0 | erot = 11.163077485559 | etot = 84929.0935899816
609  ekin = 84917.930512496 | epot = 0 | erot = 11.163077636064 | etot = 84929.0935901321
610  ekin = 84917.930512496 | epot = 0 | erot = 11.1630777859001 | etot = 84929.0935902819
611  ekin = 84917.930512496 | epot = 0 | erot = 11.1630779350362 | etot = 84929.0935904311
612  ekin = 84917.930512496 | epot = 0 | erot = 11.1630780834414 | etot = 84929.0935905795
613  ekin = 84917.930512496 | epot = 0 | erot = 11.1630782310861 | etot = 84929.0935907271
614  ekin = 84917.930512496 | epot = 0 | erot = 11.163078377941 | etot = 84929.093590874
615  ekin = 84917.930512496 | epot = 0 | erot = 11.1630785239776 | etot = 84929.09359102
616  ekin = 84917.930512496 | epot = 0 | erot = 11.1630786691685 | etot = 84929.0935911652
617  ekin = 84917.930512496 | epot = 0 | erot = 11.1630788134868 | etot = 84929.0935913095
618  ekin = 84917.930512496 | epot = 0 | erot = 11.1630789569065 | etot = 84929.0935914529
619  ekin = 84917.930512496 | epot = 0 | erot = 11.1630790994023 | etot = 84929.0935915954
620  ekin = 84917.930512496 | epot = 0 | erot = 11.1630792409499 | etot = 84929.093591737
621  ekin = 84917.930512496 | epot = 0 | erot = 11.1630793815259 | etot = 84929.0935918776
622  ekin = 84917.930512496 | epot = 0 | erot = 11.1630795211076 | etot = 84929.0935920171
623  ekin = 84917.930512496 | epot = 0 | erot = 11.1630796596732 | etot = 84929.0935921557
624  ekin = 84917.930512496 | epot = 0 | erot = 11.1630797972019 | etot = 84929.0935922932
625  ekin = 84917.930512496 | epot = 0 | erot = 11.1630799336736 | etot = 84929.0935924297
626  ekin = 84917.930512496 | epot = 0 | erot = 11.1630800690693 | etot = 84929.0935925651
627  ekin = 84917.930512496 | epot = 0 | erot = 11.1630802033708 | etot = 84929.0935926994
628  ekin = 84917.930512496 | epot = 0 | erot = 11.1630803365607 | etot = 84929.0935928326
629  ekin = 84917.930512496 | epot = 0 | erot = 11.1630804686226 | etot = 84929.0935929647
630  ekin = 84917.930512496 | epot = 0 | erot = 11.1630805995409 | etot = 84929.0935930956
631  ekin = 84917.930512496 | epot = 0 | erot = 11.1630807293011 | etot = 84929.0935932253
632  ekin = 84917.930512496 | epot = 0 | erot = 11.1630808578895 | etot = 84929.0935933539
633  ekin = 84917.930512496 | epot = 0 | erot = 11.163080985293 | etot = 84929.0935934813
634  ekin = 84917.930512496 | epot = 0 | erot = 11.1630811114999 | etot = 84929.0935936075
635  ekin = 84917.930512496 | epot = 0 | erot = 11.1630812364989 | etot = 84929.0935937325
636  ekin = 84917.930512496 | epot = 0 | erot = 11.1630813602798 | etot = 84929.0935938563
637  ekin = 84917.930512496 | epot = 0 | erot = 11.1630814828332 | etot = 84929.0935939789
638  ekin = 84917.930512496 | epot = 0 | erot = 11.1630816041505 | etot = 84929.0935941002
639  ekin = 84917.930512496 | epot = 0 | erot = 11.1630817242242 | etot = 84929.0935942203
640  ekin = 84917.930512496 | epot = 0 | erot = 11.1630818430471 | etot = 84929.0935943391
641  ekin = 84917.930512496 | epot = 0 | erot = 11.1630819606134 | etot = 84929.0935944566
642  ekin = 84917.930512496 | epot = 0 | erot = 11.1630820769176 | etot = 84929.093594573
643  ekin = 84917.930512496 | epot = 0 | erot = 11.1630821919552 | etot = 84929.093594688
644  ekin = 84917.930512496 | epot = 0 | erot = 11.1630823057226 | etot = 84929.0935948018
645  ekin = 84917.930512496 | epot = 0 | erot = 11.1630824182166 | etot = 84929.0935949143
646  ekin = 84917.930512496 | epot = 0 | erot = 11.1630825294352 | etot = 84929.0935950255
647  ekin = 84917.930512496 | epot = 0 | erot = 11.1630826393766 | etot = 84929.0935951354
648  ekin = 84917.930512496 | epot = 0 | erot = 11.16308274804 | etot = 84929.0935952441
649  ekin = 84917.930512496 | epot = 0 | erot = 11.1630828554254 | etot = 84929.0935953515
650  ekin = 84917.930512496 | epot = 0 | erot = 11.1630829615331 | etot = 84929.0935954576
651  ekin = 84917.930512496 | epot = 0 | erot = 11.1630830663643 | etot = 84929.0935955624
652  ekin = 84917.930512496 | epot = 0 | erot = 11.1630831699209 | etot = 84929.093595666
653  ekin = 84917.930512496 | epot = 0 | erot = 11.1630832722051 | etot = 84929.0935957682
654  ekin = 84917.930512496 | epot = 0 | erot = 11.1630833732199 | etot = 84929.0935958693
655  ekin = 84917.930512496 | epot = 0 | erot = 11.163083472969 | etot = 84929.093595969
656  ekin = 84917.930512496 | epot = 0 | erot = 11.1630835714563 | etot = 84929.0935960675
657  ekin = 84917.930512496 | epot = 0 | erot = 11.1630836686865 | etot = 84929.0935961647
658  ekin = 84917.930512496 | epot = 0 | erot = 11.1630837646647 | etot = 84929.0935962607
659  ekin = 84917.930512496 | epot = 0 | erot = 11.1630838593967 | etot = 84929.0935963554
660  ekin = 84917.930512496 | epot = 0 | erot = 11.1630839528884 | etot = 84929.0935964489
661  ekin = 84917.930512496 | epot = 0 | erot = 11.1630840451465 | etot = 84929.0935965412
662  ekin = 84917.930512496 | epot = 0 | erot = 11.1630841361779 | etot = 84929.0935966322
663  ekin = 84917.930512496 | epot = 0 | erot = 11.1630842259901 | etot = 84929.093596722
664  ekin = 84917.930512496 | epot = 0 | erot = 11.1630843145909 | etot = 84929.0935968106
665  ekin = 84917.930512496 | epot = 0 | erot = 11.1630844019885 | etot = 84929.093596898
666  ekin = 84917.930512496 | epot = 0 | erot = 11.1630844881914 | etot = 84929.0935969842
667  ekin = 84917.930512496 | epot = 0 | erot = 11.1630845732087 | etot = 84929.0935970693
668  ekin = 84917.930512496 | epot = 0 | erot = 11.1630846570494 | etot = 84929.0935971531
669  ekin = 84917.930512496 | epot = 0 | erot = 11.1630847397233 | etot = 84929.0935972358
670  ekin = 84917.930512496 | epot = 0 | erot = 11.16308482124 | etot = 84929.0935973173
671  ekin = 84917.930512496 | epot = 0 | erot = 11.1630849016098 | etot = 84929.0935973976
672  ekin = 84917.930512496 | epot = 0 | erot = 11.1630849808431 | etot = 84929.0935974769
673  ekin = 84917.930512496 | epot = 0 | erot = 11.1630850589504 | etot = 84929.093597555
674  ekin = 84917.930512496 | epot = 0 | erot = 11.1630851359426 | etot = 84929.093597632
675  ekin = 84917.930512496 | epot = 0 | erot = 11.1630852118309 | etot = 84929.0935977079
676  ekin = 84917.930512496 | epot = 0 | erot = 11.1630852866264 | etot = 84929.0935977827
677  ekin = 84917.930512496 | epot = 0 | erot = 11.1630853603406 | etot = 84929.0935978564
678  ekin = 84917.930512496 | epot = 0 | erot = 11.1630854329852 | etot = 84929.093597929
679  ekin = 84917.930512496 | epot = 0 | erot = 11.1630855045719 | etot = 84929.0935980006
680  ekin = 84917.930512496 | epot = 0 | erot = 11.1630855751127 | etot = 84929.0935980712
681  ekin = 84917.930512496 | epot = 0 | erot = 11.1630856446196 | etot = 84929.0935981407
682  ekin = 84917.930512496 | epot = 0 | erot = 11.1630857131049 | etot = 84929.0935982091
683  ekin = 84917.930512496 | epot = 0 | erot = 11.1630857805807 | etot = 84929.0935982766
684  ekin = 84917.930512496 | epot = 0 | erot = 11.1630858470596 | etot = 84929.0935983431
685  ekin = 84917.930512496 | epot = 0 | erot = 11.1630859125538 | etot = 84929.0935984086
686  ekin = 84917.930512496 | epot = 0 | erot = 11.163085977076 | etot = 84929.0935984731
687  ekin = 84917.930512496 | epot = 0 | erot = 11.1630860406388 | etot = 84929.0935985367
688  ekin = 84917.930512496 | epot = 0 | erot = 11.1630861032548 | etot = 84929.0935985993
689  ekin = 84917.930512496 | epot = 0 | erot = 11.1630861649367 | etot = 84929.093598661
690  ekin = 84917.930512496 | epot = 0 | erot = 11.1630862256972 | etot = 84929.0935987217
691  ekin = 84917.930512496 | epot = 0 | erot = 11.1630862855491 | etot = 84929.0935987816
692  ekin = 84917.930512496 | epot = 0 | erot = 11.1630863445051 | etot = 84929.0935988405
693  ekin = 84917.930512496 | epot = 0 | erot = 11.163086402578 | etot = 84929.0935988986
694  ekin = 84917.930512496 | epot = 0 | erot = 11.1630864597806 | etot = 84929.0935989558
695  ekin = 84917.930512496 | epot = 0 | erot = 11.1630865161256 | etot = 84929.0935990122
696  ekin = 84917.930512496 | epot = 0 | erot = 11.1630865716258 | etot = 84929.0935990677
697  ekin = 84917.930512496 | epot = 0 | erot = 11.1630866262938 | etot = 84929.0935991223
698  ekin = 84917.930512496 | epot = 0 | erot = 11.1630866801425 | etot = 84929.0935991762
699  ekin = 84917.930512496 | epot = 0 | erot = 11.1630867331844 | etot = 84929.0935992292
700  ekin = 59.2832894503304 | epot = 0 | erot = 10.9707790931244 | etot = 70.2540685434548
701  ekin = 59.2832894503304 | epot = 0 | erot = 10.9707791445906 | etot = 70.254068594921
702  ekin = 59.2832894503304 | epot = 0 | erot = 10.9707791952877 | etot = 70.2540686456181
703  ekin = 59.2832894503304 | epot = 0 | erot = 10.9707792452282 | etot = 70.2540686955587
704  ekin = 59.2832894503304 | epot = 0 | erot = 10.9707792944246 | etot = 70.254068744755
705  ekin = 59.2832894503304 | epot = 0 | erot = 10.9707793428891 | etot = 70.2540687932195
706  ekin = 59.2832894503304 | epot = 0 | erot = 10.9707793906341 | etot = 70.2540688409645
707  ekin = 59.2832894503304 | epot = 0 | erot = 10.9707794376716 | etot = 70.2540688880021
708  ekin = 59.2832894503304 | epot = 0 | erot = 10.970779484014 | etot = 70.2540689343444
709  ekin = 59.2832894503304 | epot = 0 | erot = 10.9707795296731 | etot = 70.2540689800036
710  ekin = 59.2832894503304 | epot = 0 | erot = 10.970779574661 | etot = 70.2540690249915
711  ekin = 59.2832894503304 | epot = 0 | erot = 10.9707796189896 | etot = 70.25406906932
712  ekin = 59.2832894503304 | epot = 0 | erot = 10.9707796626705 | etot = 70.254069113001
713  ekin = 59.2832894503304 | epot = 0 | erot = 10.9707797057156 | etot = 70.2540691560461
714  ekin = 59.2832894503304 | epot = 0 | erot = 10.9707797481365 | etot = 70.2540691984669
715  ekin = 59.2832894503304 | epot = 0 | erot = 10.9707797899446 | etot = 70.254069240275
716  ekin = 59.2832894503304 | epot = 0 | erot = 10.9707798311514 | etot = 70.2540692814818
717  ekin = 59.2832894503304 | epot = 0 | erot = 10.9707798717682 | etot = 70.2540693220986
718  ekin = 59.2832894503304 | epot = 0 | erot = 10.9707799118062 | etot = 70.2540693621366
719  ekin = 59.2832894503304 | epot = 0 | erot = 10.9707799512766 | etot = 70.254069401607
720  ekin = 59.2832894503304 | epot = 0 | erot = 10.9707799901903 | etot = 70.2540694405207
721  ekin = 59.2832894503304 | epot = 0 | erot = 10.9707800285584 | etot = 70.2540694788888
722  ekin = 59.2832894503304 | epot = 0 | erot = 10.9707800663916 | etot = 70.254069516722
723  ekin = 59.2832894503304 | epot = 0 | erot = 10.9707801037006 | etot = 70.254069554031
724  ekin = 59.2832894503304 | epot = 0 | erot = 10.9707801404962 | etot = 70.2540695908266
725  ekin = 59.2832894503304 | epot = 0 | erot = 10.9707801767887 | etot = 70.2540696271191
726  ekin = 59.2832894503304 | epot = 0 | erot = 10.9707802125886 | etot = 70.2540696629191
727  ekin = 59.2832894503304 | epot = 0 | erot = 10.9707802479063 | etot = 70.2540696982367
728  ekin = 59.2832894503304 | epot = 0 | erot = 10.9707802827518 | etot = 70.2540697330823
729  ekin = 59.2832894503304 | epot = 0 | erot = 10.9707803171355 | etot = 70.2540697674659
730  ekin = 59.2832894503304 | epot = 0 | erot = 10.9707803510671 | etot = 70.2540698013975
731  ekin = 59.2832894503304 | epot = 0 | erot = 10.9707803845567 | etot = 70.2540698348871
732  ekin = 59.2832894503304 | epot = 0 | erot = 10.970780417614 | etot = 70.2540698679445
733  ekin = 59.2832894503304 | epot = 0 | erot = 10.9707804502488 | etot = 70.2540699005793
734  ekin = 59.2832894503304 | epot = 0 | erot = 10.9707804824706 | etot = 70.2540699328011
735  ekin = 59.2832894503304 | epot = 0 | erot = 10.970780514289 | etot = 70.2540699646195
736  ekin = 59.2832894503304 | epot = 0 | erot = 10.9707805457134 | etot = 70.2540699960438
737  ekin = 59.2832894503304 | epot = 0 | erot = 10.970780576753 | etot = 70.2540700270834
738  ekin = 59.2832894503304 | epot = 0 | erot = 10.970780607417 | etot = 70.2540700577475
739  ekin = 59.2832894503304 | epot = 0 | erot = 10.9707806377147 | etot = 70.2540700880451
740  ekin = 59.2832894503304 | epot = 0 | erot = 10.970780667655 | etot = 70.2540701179854
741  ekin = 59.2832894503304 | epot = 0 | erot = 10.9707806972468 | etot = 70.2540701475772
742  ekin = 59.2832894503304 | epot = 0 | erot = 10.970780726499 | etot = 70.2540701768295
743  ekin = 59.2832894503304 | epot = 0 | erot = 10.9707807554204 | etot = 70.2540702057508
744  ekin = 59.2832894503304 | epot = 0 | erot = 10.9707807840195 | etot = 70.25407023435
745  ekin = 59.2832894503304 | epot = 0 | erot = 10.9707808123051 | etot = 70.2540702626355
746  ekin = 59.2832894503304 | epot = 0 | erot = 10.9707808402855 | etot = 70.2540702906159
747  ekin = 59.2832894503304 | epot = 0 | erot = 10.9707808679692 | etot = 70.2540703182996
748  ekin = 59.2832894503304 | epot = 0 | erot = 10.9707808953645 | etot = 70.2540703456949
749  ekin = 59.2832894503304 | epot = 0 | erot = 10.9707809224796 | etot = 70.25407037281
750  ekin = 59.2832894503304 | epot = 0 | erot = 10.9707809493227 | etot = 70.2540703996532
751  ekin = 59.2832894503304 | epot = 0 | erot = 10.970780975902 | etot = 70.2540704262324
752  ekin = 59.2832894503304 | epot = 0 | erot = 10.9707810022253 | etot = 70.2540704525557
753  ekin = 59.2832894503304 | epot = 0 | erot = 10.9707810283007 | etot = 70.2540704786311
754  ekin = 59.2832894503304 | epot = 0 | erot = 10.970781054136 | etot = 70.2540705044665
755  ekin = 59.2832894503304 | epot = 0 | erot = 10.9707810797391 | etot = 70.2540705300695
756  ekin = 59.2832894503304 | epot = 0 | erot = 10.9707811051175 | etot = 70.254070555448
757  ekin = 59.2832894503304 | epot = 0 | erot = 10.9707811302791 | etot = 70.2540705806096
758  ekin = 59.2832894503304 | epot = 0 | erot = 10.9707811552314 | etot = 70.2540706055618
759  ekin = 59.2832894503304 | epot = 0 | erot = 10.9707811799819 | etot = 70.2540706303124
760  ekin = 59.2832894503304 | epot = 0 | erot = 10.9707812045382 | etot = 70.2540706548686
761  ekin = 59.2832894503304 | epot = 0 | erot = 10.9707812289076 | etot = 70.254070679238
762  ekin = 59.2832894503304 | epot = 0 | erot = 10.9707812530975 | etot = 70.2540707034279
763  ekin = 59.2832894503304 | epot = 0 | erot = 10.9707812771151 | etot = 70.2540707274456
764  ekin = 59.2832894503304 | epot = 0 | erot = 10.9707813009679 | etot = 70.2540707512983
[...]
788  ekin = 59.2832894503304 | epot = 0 | erot = 10.9707818420826 | etot = 70.2540712924131
789  ekin = 59.2832894503304 | epot = 0 | erot = 10.9707818640567 | etot = 70.2540713143871
790  ekin = 59.2832894503304 | epot = 0 | erot = 10.9707818860426 | etot = 70.254071336373
791  ekin = 59.2832894503304 | epot = 0 | erot = 10.970781908047 | etot = 70.2540713583775
792  ekin = 59.2832894503304 | epot = 0 | erot = 10.9707819300766 | etot = 70.254071380407
793  ekin = 59.2832894503304 | epot = 0 | erot = 10.9707819521378 | etot = 70.2540714024682
794  ekin = 59.2832894503304 | epot = 0 | erot = 10.9707819742375 | etot = 70.2540714245679
795  ekin = 59.2832894503304 | epot = 0 | erot = 10.9707819963821 | etot = 70.2540714467125
796  ekin = 59.2832894503304 | epot = 0 | erot = 10.9707820185784 | etot = 70.2540714689089
797  ekin = 59.2832894503304 | epot = 0 | erot = 10.9707820408332 | etot = 70.2540714911636
798  ekin = 59.2832894503304 | epot = 0 | erot = 10.9707820631529 | etot = 70.2540715134834
799  ekin = 59.2832894503304 | epot = 0 | erot = 10.9707820855445 | etot = 70.2540715358749
800  ekin = 54578.989247489 | epot = 21368.8137229901 | erot = 10.9707821080146 | etot = 75958.7737525871
801  ekin = 219960.188651874 | epot = 0.971435539583018 | erot = 10.9707821305699 | etot = 219972.130869544
802  ekin = 219960.04647063 | epot = 1.86440868294038 | erot = 10.9707821532174 | etot = 219972.881661466
803  ekin = 219962.169331647 | epot = 0 | erot = 10.9707821759638 | etot = 219973.140113823
804  ekin = 219962.169331647 | epot = 0 | erot = 10.9707821988159 | etot = 219973.140113846
805  ekin = 219962.169331647 | epot = 0 | erot = 10.9707822217807 | etot = 219973.140113869
806  ekin = 219962.169331647 | epot = 0 | erot = 10.9707822448651 | etot = 219973.140113892
807  ekin = 219962.169331647 | epot = 0 | erot = 10.9707822680761 | etot = 219973.140113915
808  ekin = 219962.169331647 | epot = 0 | erot = 10.9707822914205 | etot = 219973.140113938
809  ekin = 219962.169331647 | epot = 0 | erot = 10.9707823149056 | etot = 219973.140113962
810  ekin = 219962.169331647 | epot = 0 | erot = 10.9707823385383 | etot = 219973.140113985
811  ekin = 219962.169331647 | epot = 0 | erot = 10.9707823623258 | etot = 219973.140114009
812  ekin = 219962.169331647 | epot = 0 | erot = 10.9707823862753 | etot = 219973.140114033
813  ekin = 219962.169331647 | epot = 0 | erot = 10.970782410394 | etot = 219973.140114057
814  ekin = 219962.169331647 | epot = 0 | erot = 10.9707824346892 | etot = 219973.140114081
815  ekin = 219962.169331647 | epot = 0 | erot = 10.9707824591682 | etot = 219973.140114106
816  ekin = 219962.169331647 | epot = 0 | erot = 10.9707824838384 | etot = 219973.140114131
817  ekin = 219962.169331647 | epot = 0 | erot = 10.9707825087073 | etot = 219973.140114155
818  ekin = 219962.169331647 | epot = 0 | erot = 10.9707825337823 | etot = 219973.140114181
819  ekin = 219962.169331647 | epot = 0 | erot = 10.9707825590711 | etot = 219973.140114206
820  ekin = 219962.169331647 | epot = 0 | erot = 10.9707825845812 | etot = 219973.140114231
821  ekin = 219962.169331647 | epot = 0 | erot = 10.9707826103204 | etot = 219973.140114257
822  ekin = 219962.169331647 | epot = 0 | erot = 10.9707826362964 | etot = 219973.140114283
823  ekin = 219962.169331647 | epot = 0 | erot = 10.9707826625171 | etot = 219973.140114309
824  ekin = 219962.169331647 | epot = 0 | erot = 10.9707826889904 | etot = 219973.140114336
825  ekin = 219962.169331647 | epot = 0 | erot = 10.9707827157242 | etot = 219973.140114362
826  ekin = 219962.169331647 | epot = 0 | erot = 10.9707827427266 | etot = 219973.140114389
827  ekin = 219962.169331647 | epot = 0 | erot = 10.9707827700057 | etot = 219973.140114417
828  ekin = 219962.169331647 | epot = 0 | erot = 10.9707827975697 | etot = 219973.140114444
829  ekin = 219962.169331647 | epot = 0 | erot = 10.970782825427 | etot = 219973.140114472
830  ekin = 219962.169331647 | epot = 0 | erot = 10.9707828535858 | etot = 219973.1401145
831  ekin = 219962.169331647 | epot = 0 | erot = 10.9707828820546 | etot = 219973.140114529
832  ekin = 219962.169331647 | epot = 0 | erot = 10.9707829108421 | etot = 219973.140114558
833  ekin = 219962.169331647 | epot = 0 | erot = 10.9707829399566 | etot = 219973.140114587
834  ekin = 219962.169331647 | epot = 0 | erot = 10.9707829694071 | etot = 219973.140114616
835  ekin = 219962.169331647 | epot = 0 | erot = 10.9707829992023 | etot = 219973.140114646
836  ekin = 219962.169331647 | epot = 0 | erot = 10.970783029351 | etot = 219973.140114676
837  ekin = 219962.169331647 | epot = 0 | erot = 10.9707830598623 | etot = 219973.140114707
838  ekin = 219962.169331647 | epot = 0 | erot = 10.9707830907452 | etot = 219973.140114737
839  ekin = 219962.169331647 | epot = 0 | erot = 10.9707831220089 | etot = 219973.140114769
840  ekin = 219962.169331647 | epot = 0 | erot = 10.9707831536626 | etot = 219973.1401148
841  ekin = 219962.169331647 | epot = 0 | erot = 10.9707831857158 | etot = 219973.140114832
842  ekin = 219962.169331647 | epot = 0 | erot = 10.9707832181777 | etot = 219973.140114865
843  ekin = 219962.169331647 | epot = 0 | erot = 10.9707832510581 | etot = 219973.140114898
844  ekin = 219962.169331647 | epot = 0 | erot = 10.9707832843665 | etot = 219973.140114931
845  ekin = 219962.169331647 | epot = 0 | erot = 10.9707833181127 | etot = 219973.140114965
846  ekin = 219962.169331647 | epot = 0 | erot = 10.9707833523066 | etot = 219973.140114999
847  ekin = 219962.169331647 | epot = 0 | erot = 10.9707833869581 | etot = 219973.140115034
848  ekin = 219962.169331647 | epot = 0 | erot = 10.9707834220772 | etot = 219973.140115069
849  ekin = 219962.169331647 | epot = 0 | erot = 10.9707834576742 | etot = 219973.140115104
850  ekin = 219962.169331647 | epot = 0 | erot = 10.9707834937592 | etot = 219973.140115141
851  ekin = 219962.169331647 | epot = 0 | erot = 10.9707835303427 | etot = 219973.140115177
852  ekin = 219962.169331647 | epot = 0 | erot = 10.970783567435 | etot = 219973.140115214
853  ekin = 219962.169331647 | epot = 0 | erot = 10.9707836050468 | etot = 219973.140115252
854  ekin = 219962.169331647 | epot = 0 | erot = 10.9707836431887 | etot = 219973.14011529
855  ekin = 219962.169331647 | epot = 0 | erot = 10.9707836818715 | etot = 219973.140115329
856  ekin = 219962.169331647 | epot = 0 | erot = 10.970783721106 | etot = 219973.140115368
857  ekin = 219962.169331647 | epot = 0 | erot = 10.9707837609033 | etot = 219973.140115408
858  ekin = 219962.169331647 | epot = 0 | erot = 10.9707838012744 | etot = 219973.140115448
859  ekin = 219962.169331647 | epot = 0 | erot = 10.9707838422305 | etot = 219973.140115489
860  ekin = 219962.169331647 | epot = 0 | erot = 10.9707838837828 | etot = 219973.140115531
861  ekin = 219962.169331647 | epot = 0 | erot = 10.9707839259427 | etot = 219973.140115573
862  ekin = 219962.169331647 | epot = 0 | erot = 10.9707839687217 | etot = 219973.140115615
863  ekin = 219962.169331647 | epot = 0 | erot = 10.9707840121313 | etot = 219973.140115659
864  ekin = 219962.169331647 | epot = 0 | erot = 10.9707840561832 | etot = 219973.140115703
865  ekin = 219962.169331647 | epot = 0 | erot = 10.9707841008891 | etot = 219973.140115748
866  ekin = 219962.169331647 | epot = 0 | erot = 10.9707841462608 | etot = 219973.140115793
867  ekin = 219962.169331647 | epot = 0 | erot = 10.9707841923103 | etot = 219973.140115839
868  ekin = 219962.169331647 | epot = 0 | erot = 10.9707842390495 | etot = 219973.140115886
869  ekin = 219962.169331647 | epot = 0 | erot = 10.9707842864905 | etot = 219973.140115933
870  ekin = 219962.169331647 | epot = 0 | erot = 10.9707843346455 | etot = 219973.140115981
871  ekin = 219962.169331647 | epot = 0 | erot = 10.9707843835266 | etot = 219973.14011603
872  ekin = 219962.169331647 | epot = 0 | erot = 10.9707844331463 | etot = 219973.14011608
873  ekin = 219962.169331647 | epot = 0 | erot = 10.9707844835168 | etot = 219973.14011613
874  ekin = 219962.169331647 | epot = 0 | erot = 10.9707845346505 | etot = 219973.140116181
875  ekin = 219962.169331647 | epot = 0 | erot = 10.97078458656 | etot = 219973.140116233
876  ekin = 219962.169331647 | epot = 0 | erot = 10.9707846392578 | etot = 219973.140116286
877  ekin = 219962.169331647 | epot = 0 | erot = 10.9707846927564 | etot = 219973.14011634
878  ekin = 219962.169331647 | epot = 0 | erot = 10.9707847470685 | etot = 219973.140116394
879  ekin = 219962.169331647 | epot = 0 | erot = 10.9707848022068 | etot = 219973.140116449
880  ekin = 219962.169331647 | epot = 0 | erot = 10.9707848581839 | etot = 219973.140116505
881  ekin = 219962.169331647 | epot = 0 | erot = 10.9707849150125 | etot = 219973.140116562
882  ekin = 219962.169331647 | epot = 0 | erot = 10.9707849727054 | etot = 219973.140116619
883  ekin = 219962.169331647 | epot = 0 | erot = 10.9707850312753 | etot = 219973.140116678
884  ekin = 219962.169331647 | epot = 0 | erot = 10.970785090735 | etot = 219973.140116737
885  ekin = 219962.169331647 | epot = 0 | erot = 10.9707851510973 | etot = 219973.140116798
886  ekin = 219962.169331647 | epot = 0 | erot = 10.9707852123748 | etot = 219973.140116859
887  ekin = 219962.169331647 | epot = 0 | erot = 10.9707852745802 | etot = 219973.140116921
888  ekin = 219962.169331647 | epot = 0 | erot = 10.9707853377263 | etot = 219973.140116984
889  ekin = 219962.169331647 | epot = 0 | erot = 10.9707854018258 | etot = 219973.140117049
890  ekin = 219962.169331647 | epot = 0 | erot = 10.9707854668911 | etot = 219973.140117114
891  ekin = 219962.169331647 | epot = 0 | erot = 10.9707855329349 | etot = 219973.14011718
892  ekin = 219962.169331647 | epot = 0 | erot = 10.9707855999696 | etot = 219973.140117247
893  ekin = 219962.169331647 | epot = 0 | erot = 10.9707856680077 | etot = 219973.140117315
894  ekin = 219962.169331647 | epot = 0 | erot = 10.9707857370614 | etot = 219973.140117384
895  ekin = 219962.169331647 | epot = 0 | erot = 10.9707858071429 | etot = 219973.140117454
896  ekin = 219962.169331647 | epot = 0 | erot = 10.9707858782644 | etot = 219973.140117525
897  ekin = 219962.169331647 | epot = 0 | erot = 10.9707859504378 | etot = 219973.140117597
898  ekin = 219962.169331647 | epot = 0 | erot = 10.9707860236749 | etot = 219973.14011767
899  ekin = 219962.169331647 | epot = 0 | erot = 10.9707860979875 | etot = 219973.140117745
900  ekin = 6.74175181375512 | epot = 0 | erot = 10.5861707887716 | etot = 17.3279226025267
901  ekin = 6.74175181375512 | epot = 0 | erot = 10.5861708652694 | etot = 17.3279226790246
902  ekin = 6.74175181375512 | epot = 0 | erot = 10.5861709428767 | etot = 17.3279227566318
903  ekin = 6.74175181375512 | epot = 0 | erot = 10.5861710216043 | etot = 17.3279228353595
904  ekin = 6.74175181375512 | epot = 0 | erot = 10.5861711014631 | etot = 17.3279229152182
905  ekin = 6.74175181375512 | epot = 0 | erot = 10.5861711824635 | etot = 17.3279229962186
906  ekin = 6.74175181375512 | epot = 0 | erot = 10.5861712646156 | etot = 17.3279230783707
907  ekin = 6.74175181375512 | epot = 0 | erot = 10.5861713479296 | etot = 17.3279231616847
908  ekin = 6.74175181375512 | epot = 0 | erot = 10.586171432415 | etot = 17.3279232461701
909  ekin = 6.74175181375512 | epot = 0 | erot = 10.5861715180812 | etot = 17.3279233318364
910  ekin = 6.74175181375512 | epot = 0 | erot = 10.5861716049374 | etot = 17.3279234186925
911  ekin = 6.74175181375512 | epot = 0 | erot = 10.5861716929921 | etot = 17.3279235067472
912  ekin = 6.74175181375512 | epot = 0 | erot = 10.5861717822538 | etot = 17.3279235960089
913  ekin = 6.74175181375512 | epot = 0 | erot = 10.5861718727305 | etot = 17.3279236864856
914  ekin = 6.74175181375512 | epot = 0 | erot = 10.5861719644297 | etot = 17.3279237781848
915  ekin = 6.74175181375512 | epot = 0 | erot = 10.5861720573586 | etot = 17.3279238711138
916  ekin = 6.74175181375512 | epot = 0 | erot = 10.5861721515241 | etot = 17.3279239652792
917  ekin = 6.74175181375512 | epot = 0 | erot = 10.5861722469324 | etot = 17.3279240606875
918  ekin = 6.74175181375512 | epot = 0 | erot = 10.5861723435894 | etot = 17.3279241573445
919  ekin = 6.74175181375512 | epot = 0 | erot = 10.5861724415004 | etot = 17.3279242552555
920  ekin = 6.74175181375512 | epot = 0 | erot = 10.5861725406702 | etot = 17.3279243544254
921  ekin = 6.74175181375512 | epot = 0 | erot = 10.5861726411034 | etot = 17.3279244548585
922  ekin = 6.74175181375512 | epot = 0 | erot = 10.5861727428036 | etot = 17.3279245565587
923  ekin = 6.74175181375512 | epot = 0 | erot = 10.586172845774 | etot = 17.3279246595291
924  ekin = 6.74175181375512 | epot = 0 | erot = 10.5861729500174 | etot = 17.3279247637725
925  ekin = 6.74175181375512 | epot = 0 | erot = 10.5861730555357 | etot = 17.3279248692908
926  ekin = 6.74175181375512 | epot = 0 | erot = 10.5861731623305 | etot = 17.3279249760856
927  ekin = 6.74175181375512 | epot = 0 | erot = 10.5861732704025 | etot = 17.3279250841577
928  ekin = 6.74175181375512 | epot = 0 | erot = 10.586173379752 | etot = 17.3279251935071
929  ekin = 6.74175181375512 | epot = 0 | erot = 10.5861734903782 | etot = 17.3279253041333
930  ekin = 6.74175181375512 | epot = 0 | erot = 10.5861736022802 | etot = 17.3279254160353
931  ekin = 6.74175181375512 | epot = 0 | erot = 10.5861737154558 | etot = 17.3279255292109
932  ekin = 6.74175181375512 | epot = 0 | erot = 10.5861738299026 | etot = 17.3279256436577
933  ekin = 6.74175181375512 | epot = 0 | erot = 10.586173945617 | etot = 17.3279257593721
934  ekin = 6.74175181375512 | epot = 0 | erot = 10.586174062595 | etot = 17.3279258763502
935  ekin = 6.74175181375512 | epot = 0 | erot = 10.5861741808317 | etot = 17.3279259945868
936  ekin = 6.74175181375512 | epot = 0 | erot = 10.5861743003214 | etot = 17.3279261140765
937  ekin = 6.74175181375512 | epot = 0 | erot = 10.5861744210575 | etot = 17.3279262348126
938  ekin = 6.74175181375512 | epot = 0 | erot = 10.5861745430327 | etot = 17.3279263567878
939  ekin = 6.74175181375512 | epot = 0 | erot = 10.5861746662389 | etot = 17.3279264799941
940  ekin = 6.74175181375512 | epot = 0 | erot = 10.5861747906672 | etot = 17.3279266044223
941  ekin = 6.74175181375512 | epot = 0 | erot = 10.5861749163077 | etot = 17.3279267300628
942  ekin = 6.74175181375512 | epot = 0 | erot = 10.5861750431497 | etot = 17.3279268569048
943  ekin = 6.74175181375512 | epot = 0 | erot = 10.5861751711817 | etot = 17.3279269849368
944  ekin = 6.74175181375512 | epot = 0 | erot = 10.5861753003913 | etot = 17.3279271141464
945  ekin = 6.74175181375512 | epot = 0 | erot = 10.5861754307651 | etot = 17.3279272445202
946  ekin = 6.74175181375512 | epot = 0 | erot = 10.586175562289 | etot = 17.3279273760441
947  ekin = 6.74175181375512 | epot = 0 | erot = 10.5861756949479 | etot = 17.327927508703
948  ekin = 6.74175181375512 | epot = 0 | erot = 10.5861758287258 | etot = 17.3279276424809
949  ekin = 6.74175181375512 | epot = 0 | erot = 10.5861759636059 | etot = 17.327927777361
950  ekin = 6.74175181375512 | epot = 0 | erot = 10.5861760995704 | etot = 17.3279279133255
951  ekin = 6.74175181375512 | epot = 0 | erot = 10.5861762366006 | etot = 17.3279280503557
952  ekin = 6.74175181375512 | epot = 0 | erot = 10.586176374677 | etot = 17.3279281884322
953  ekin = 6.74175181375512 | epot = 0 | erot = 10.5861765137792 | etot = 17.3279283275344
954  ekin = 6.74175181375512 | epot = 0 | erot = 10.5861766538859 | etot = 17.327928467641
955  ekin = 6.74175181375512 | epot = 0 | erot = 10.5861767949748 | etot = 17.3279286087299
956  ekin = 6.74175181375512 | epot = 0 | erot = 10.586176937023 | etot = 17.3279287507781
957  ekin = 6.74175181375512 | epot = 0 | erot = 10.5861770800064 | etot = 17.3279288937615
958  ekin = 6.74175181375512 | epot = 0 | erot = 10.5861772239004 | etot = 17.3279290376555
959  ekin = 6.74175181375512 | epot = 0 | erot = 10.5861773686793 | etot = 17.3279291824344
960  ekin = 6.74175181375512 | epot = 0 | erot = 10.5861775143167 | etot = 17.3279293280718
961  ekin = 6.74175181375512 | epot = 0 | erot = 10.5861776607855 | etot = 17.3279294745406
962  ekin = 6.74175181375512 | epot = 0 | erot = 10.5861778080576 | etot = 17.3279296218127
963  ekin = 6.74175181375512 | epot = 0 | erot = 10.5861779561042 | etot = 17.3279297698594
964  ekin = 6.74175181375512 | epot = 0 | erot = 10.5861781048959 | etot = 17.327929918651
965  ekin = 6.74175181375512 | epot = 0 | erot = 10.5861782544024 | etot = 17.3279300681576
966  ekin = 6.74175181375512 | epot = 0 | erot = 10.5861784045928 | etot = 17.327930218348
967  ekin = 6.74175181375512 | epot = 0 | erot = 10.5861785554355 | etot = 17.3279303691906
968  ekin = 6.74175181375512 | epot = 0 | erot = 10.5861787068982 | etot = 17.3279305206533
969  ekin = 6.74175181375512 | epot = 0 | erot = 10.586178858948 | etot = 17.3279306727031
970  ekin = 6.74175181375512 | epot = 0 | erot = 10.5861790115514 | etot = 17.3279308253066
971  ekin = 6.74175181375512 | epot = 0 | erot = 10.5861791646745 | etot = 17.3279309784296
972  ekin = 6.74175181375512 | epot = 0 | erot = 10.5861793182826 | etot = 17.3279311320378
973  ekin = 6.74175181375512 | epot = 0 | erot = 10.5861794723408 | etot = 17.3279312860959
974  ekin = 6.74175181375512 | epot = 0 | erot = 10.5861796268133 | etot = 17.3279314405685
975  ekin = 6.74175181375512 | epot = 0 | erot = 10.5861797816644 | etot = 17.3279315954195
976  ekin = 6.74175181375512 | epot = 0 | erot = 10.5861799368576 | etot = 17.3279317506127
977  ekin = 6.74175181375512 | epot = 0 | erot = 10.5861800923562 | etot = 17.3279319061113
978  ekin = 6.74175181375512 | epot = 0 | erot = 10.5861802481233 | etot = 17.3279320618784
979  ekin = 6.74175181375512 | epot = 0 | erot = 10.5861804041213 | etot = 17.3279322178765
980  ekin = 6.74175181375512 | epot = 0 | erot = 10.5861805603129 | etot = 17.327932374068
981  ekin = 6.74175181375512 | epot = 0 | erot = 10.5861807166602 | etot = 17.3279325304154
982  ekin = 6.7383567466285 | epot = 0.000840369855042786 | erot = 10.5861808731254 | etot = 17.3253779896089
983  ekin = 6.73229519510291 | epot = 0.00690315076746547 | erot = 10.5861810296702 | etot = 17.3253793755406
984  ekin = 6.72724421133858 | epot = 0.0119551649654126 | erot = 10.5861811862567 | etot = 17.3253805625607
985  ekin = 6.72321982686227 | epot = 0.0159803743474864 | erot = 10.5861813428465 | etot = 17.3253815440563
986  ekin = 6.7202348704981 | epot = 0.0189659447940632 | erot = 10.5861814994016 | etot = 17.3253823146938
987  ekin = 6.71829888947369 | epot = 0.0209023251169144 | erot = 10.5861816558837 | etot = 17.3253828704743
988  ekin = 6.71741809042484 | epot = 0.0217833060964593 | erot = 10.5861818122548 | etot = 17.3253832087761
989  ekin = 6.71759530091418 | epot = 0.0216060589906521 | erot = 10.5861819684768 | etot = 17.3253833283817
990  ekin = 6.71882995186657 | epot = 0.020371153112118 | erot = 10.5861821245121 | etot = 17.3253832294908
991  ekin = 6.72111808110587 | epot = 0.0180825522888774 | erot = 10.5861822803229 | etot = 17.3253829137177
992  ekin = 6.72445235795573 | epot = 0.0147475902459135 | erot = 10.586182435872 | etot = 17.3253823840736
993  ekin = 6.72882212864649 | epot = 0.0103769251659167 | erot = 10.5861825911221 | etot = 17.3253816449345
994  ekin = 6.73421348205302 | epot = 0.00498447390476565 | erot = 10.5861827460365 | etot = 17.3253807019943
995  ekin = 6.73727727515435 | epot = 0 | erot = 10.5861829005789 | etot = 17.3234601757332
996  ekin = 6.73727727515435 | epot = 0 | erot = 10.586183054713 | etot = 17.3234603298674
997  ekin = 6.73727727515435 | epot = 0 | erot = 10.5861832084034 | etot = 17.3234604835577
998  ekin = 6.73727727515435 | epot = 0 | erot = 10.5861833616148 | etot = 17.3234606367691
999  ekin = 6.73727727515435 | epot = 0 | erot = 10.5861835143125 | etot = 17.3234607894669
1000  ekin = 6.73727727515435 | epot = 0 | erot = 10.5861836664625 | etot = 17.3234609416169
ERROR: Lost atoms: original 8 current 4
For more information see https://docs.lammps.org/err0008 (src/thermo.cpp:527)
