LAMMPS data file via write_data, version 2 Aug 2023, timestep = 250000, units = lj

10 atoms
1 atom types
9 bonds
1 bond types

-20 20 xlo xhi
-20 20 ylo yhi
-20 20 zlo zhi

Masses

1 1

Atoms # hybrid/kk

3 1 4.4059322025225995 -3.2744784042284274 -3.49822565673794 1 1 238.7324039657 0 0 0
1 1 4.535054201653698 -2.3462464353049595 -4.6216348548116715 1 1 238.7324039657 0 0 0
2 1 5.346066625359804 -2.95163605167921 -4.241578243258424 1 1 238.7324039657 0 0 0
4 1 5.004032928110301 -3.4974820556426347 -2.848273799899048 1 1 238.7324039657 0 0 0
5 1 5.854209300462012 -3.422308729577591 -2.321646123726528 1 1 238.7324039657 0 0 0
6 1 5.6713360307321885 -2.4894234171225453 -1.9584588762683746 1 1 238.7324039657 0 0 0
7 1 6.23332926342924 -1.932657902322415 -1.180893552765742 1 1 238.7324039657 0 0 0
10 1 5.035310227945591 -2.449665831963425 0.8122130179214024 1 1 238.7324039657 0 0 0
8 1 6.562109478388679 -2.212499632893407 -0.27175367077926277 1 1 238.7324039657 0 0 0
9 1 5.671783401796421 -2.4934035337651457 0.23188392232515884 1 1 238.7324039657 0 0 0

Velocities

3 0.0016054201614438624 0.10092928035060078 -0.054934944954054626 0 0 0
1 0.13044732811586415 0.06544199682439761 -0.14576433231306585 0 0 0
2 -0.09842809616182543 -0.1610094712693417 -0.08119853190601678 0 0 0
4 0.0164837898048298 -0.040824303741044475 0.16654750977484745 0 0 0
5 -0.11551812894125926 0.20102445221485465 0.10890162081185235 0 0 0
6 0.13023269451833655 0.05567495817235304 -0.05425183887846265 0 0 0
7 -0.31889526398614776 -0.3654462015953795 0.20483788603587857 0 0 0
10 -0.010792753903976746 -0.008136889468657664 0.005208741557217699 0 0 0
8 -0.20008029871747074 0.2298703054172354 0.02595812268418648 0 0 0
9 0.46494530911022924 -0.07752412690500608 -0.17530423281240426 0 0 0

Bonds

1 1 3 4
2 1 1 2
3 1 2 3
4 1 4 5
5 1 5 6
6 1 6 7
7 1 7 8
8 1 8 9
9 1 9 10
