LAMMPS data file via write_data, version 2 Aug 2023, timestep = 250000, units = lj

10 atoms
1 atom types
9 bonds
1 bond types
5 ellipsoids

-20 20 xlo xhi
-20 20 ylo yhi
-20 20 zlo zhi

Masses

1 1

Atoms # hybrid

2 1 4.560035071549659 -3.271554722849461 -5.054349254556486 1 0 238.7324039657 0 0 0
4 1 5.163929254103216 -3.076302588755098 -4.0018167279426935 1 0 238.7324039657 0 0 0
7 1 4.150340246597267 -3.7694467790343356 -2.437085695398099 1 1 238.7324039657 0 0 0
6 1 4.692414272234226 -3.221974919149454 -2.9704506109562083 1 1 238.7324039657 0 0 0
5 1 4.43210411501593 -2.404909243746768 -3.3757413574472204 1 0 238.7324039657 0 0 0
3 1 4.575470126456276 -3.899644400138434 -4.185975809862269 1 0 238.7324039657 0 0 0
1 1 3.9402995235284335 -2.9862505562885415 -4.281729328894289 1 0 238.7324039657 0 0 0
8 1 4.576192548810991 -3.6002894343687513 -1.6373358118911407 1 1 238.7324039657 0 0 0
9 1 5.53513978885044 -2.9940810211465148 -1.7459226366596547 1 1 238.7324039657 0 0 0
10 1 5.5643479870348695 -1.947674036776667 -1.251538257282181 1 1 238.7324039657 0 0 0

Velocities

2 0.050366093548562835 -0.08343955742413645 -0.015790130881578476 0 0 0
4 0.021348366948372385 0.0167632195947255 -0.10806686794049722 0 0 0
7 0.5909116140805896 0.3821646605694655 -0.27683933739549804 0 0 0
6 -0.5414431004434924 -0.37593740575430307 -0.4029776611806652 0 0 0
5 0.015138534164759517 -0.2095865158933182 0.03826691352205664 0 0 0
3 -0.039946836536314256 0.14622416582057363 0.07556284018933108 0 0 0
1 -0.02033520276443579 0.06428335711238514 0.12384472656605786 0 0 0
8 -0.6801804246805317 -0.06794885254369437 -0.7743015111541132 0 0 0
9 0.3771165525049946 0.017508241072396815 0.21819223302140517 0 0 0
10 0.05060821189670918 0.5465470812882584 0.36642476708190275 0 0 0

Bonds

1 1 2 3
2 1 4 5
3 1 7 8
4 1 6 7
5 1 5 6
6 1 3 4
7 1 1 2
8 1 8 9
9 1 9 10

Ellipsoids

7 0.5 1 0.5 0.923785244892942 0.38291098354328656 0 0
6 0.5 0.5 1 1 0 0 0
8 1 0.5 0.5 0.923785244892942 0 0.38291098354328656 0
9 0.5 0.5 1 0.923785244892942 0 0 0.38291098354328656
10 0.5 1 0.5 0 0.7071067811865475 0 0.7071067811865475
