LAMMPS (10 Dec 2025)
KOKKOS mode with Kokkos version 4.7.1 is enabled
  using double precision
  using view layout = legacy
  will use up to 1 GPU(s) per node
  using 1 OpenMP thread(s) per MPI task
WARNING: Atom style hybrid defines both, per-type and per-atom masses; both must be set, but only per-atom masses will be used (src/atom_vec_hybrid.cpp:132)
Lattice spacing in x,y,z = 2.5198421 2.5198421 2.5198421
Created orthogonal box = (0 0 0) to (50.396842 50.396842 50.396842)
  1 by 1 by 1 MPI processor grid
Created 16800 atoms
  using lattice units in orthogonal box = (0 0 0) to (50.396842 50.396842 50.396842)
  create_atoms CPU = 0.030 seconds
Created 16000 atoms
  using lattice units in orthogonal box = (0 0 0) to (50.396842 50.396842 50.396842)
  create_atoms CPU = 0.018 seconds
Created 1 atoms
  using lattice units in orthogonal box = (0 0 0) to (50.396842 50.396842 50.396842)
  create_atoms CPU = 0.001 seconds
Created 1 atoms
  using lattice units in orthogonal box = (0 0 0) to (50.396842 50.396842 50.396842)
  create_atoms CPU = 0.001 seconds
Created 1 atoms
  using lattice units in orthogonal box = (0 0 0) to (50.396842 50.396842 50.396842)
  create_atoms CPU = 0.001 seconds
Created 1 atoms
  using lattice units in orthogonal box = (0 0 0) to (50.396842 50.396842 50.396842)
  create_atoms CPU = 0.001 seconds
Created 1 atoms
  using lattice units in orthogonal box = (0 0 0) to (50.396842 50.396842 50.396842)
  create_atoms CPU = 0.001 seconds
Created 1 atoms
  using lattice units in orthogonal box = (0 0 0) to (50.396842 50.396842 50.396842)
  create_atoms CPU = 0.001 seconds
Created 1 atoms
  using lattice units in orthogonal box = (0 0 0) to (50.396842 50.396842 50.396842)
  create_atoms CPU = 0.001 seconds
Created 1 atoms
  using lattice units in orthogonal box = (0 0 0) to (50.396842 50.396842 50.396842)
  create_atoms CPU = 0.001 seconds
Created 1 atoms
  using lattice units in orthogonal box = (0 0 0) to (50.396842 50.396842 50.396842)
  create_atoms CPU = 0.001 seconds
Created 1 atoms
  using lattice units in orthogonal box = (0 0 0) to (50.396842 50.396842 50.396842)
  create_atoms CPU = 0.001 seconds
Created 1 atoms
  using lattice units in orthogonal box = (0 0 0) to (50.396842 50.396842 50.396842)
  create_atoms CPU = 0.001 seconds
Created 1 atoms
  using lattice units in orthogonal box = (0 0 0) to (50.396842 50.396842 50.396842)
  create_atoms CPU = 0.001 seconds
Created 1 atoms
  using lattice units in orthogonal box = (0 0 0) to (50.396842 50.396842 50.396842)
  create_atoms CPU = 0.001 seconds
Created 1 atoms
  using lattice units in orthogonal box = (0 0 0) to (50.396842 50.396842 50.396842)
  create_atoms CPU = 0.001 seconds
Created 1 atoms
  using lattice units in orthogonal box = (0 0 0) to (50.396842 50.396842 50.396842)
  create_atoms CPU = 0.001 seconds
Created 1 atoms
  using lattice units in orthogonal box = (0 0 0) to (50.396842 50.396842 50.396842)
  create_atoms CPU = 0.001 seconds
Created 1 atoms
  using lattice units in orthogonal box = (0 0 0) to (50.396842 50.396842 50.396842)
  create_atoms CPU = 0.001 seconds
Created 1 atoms
  using lattice units in orthogonal box = (0 0 0) to (50.396842 50.396842 50.396842)
  create_atoms CPU = 0.001 seconds
Created 1 atoms
  using lattice units in orthogonal box = (0 0 0) to (50.396842 50.396842 50.396842)
  create_atoms CPU = 0.001 seconds
Created 1 atoms
  using lattice units in orthogonal box = (0 0 0) to (50.396842 50.396842 50.396842)
  create_atoms CPU = 0.001 seconds
Created 1 atoms
  using lattice units in orthogonal box = (0 0 0) to (50.396842 50.396842 50.396842)
  create_atoms CPU = 0.001 seconds
Created 1 atoms
  using lattice units in orthogonal box = (0 0 0) to (50.396842 50.396842 50.396842)
  create_atoms CPU = 0.001 seconds
Created 1 atoms
  using lattice units in orthogonal box = (0 0 0) to (50.396842 50.396842 50.396842)
  create_atoms CPU = 0.001 seconds
Created 1 atoms
  using lattice units in orthogonal box = (0 0 0) to (50.396842 50.396842 50.396842)
  create_atoms CPU = 0.000 seconds
Created 1 atoms
  using lattice units in orthogonal box = (0 0 0) to (50.396842 50.396842 50.396842)
  create_atoms CPU = 0.000 seconds
Created 1 atoms
  using lattice units in orthogonal box = (0 0 0) to (50.396842 50.396842 50.396842)
  create_atoms CPU = 0.000 seconds
Created 1 atoms
  using lattice units in orthogonal box = (0 0 0) to (50.396842 50.396842 50.396842)
  create_atoms CPU = 0.000 seconds
Created 1 atoms
  using lattice units in orthogonal box = (0 0 0) to (50.396842 50.396842 50.396842)
  create_atoms CPU = 0.001 seconds
Created 1 atoms
  using lattice units in orthogonal box = (0 0 0) to (50.396842 50.396842 50.396842)
  create_atoms CPU = 0.000 seconds
Created 1 atoms
  using lattice units in orthogonal box = (0 0 0) to (50.396842 50.396842 50.396842)
  create_atoms CPU = 0.000 seconds
Created 1 atoms
  using lattice units in orthogonal box = (0 0 0) to (50.396842 50.396842 50.396842)
  create_atoms CPU = 0.000 seconds
Created 1 atoms
  using lattice units in orthogonal box = (0 0 0) to (50.396842 50.396842 50.396842)
  create_atoms CPU = 0.000 seconds
Created 1 atoms
  using lattice units in orthogonal box = (0 0 0) to (50.396842 50.396842 50.396842)
  create_atoms CPU = 0.000 seconds
Created 1 atoms
  using lattice units in orthogonal box = (0 0 0) to (50.396842 50.396842 50.396842)
  create_atoms CPU = 0.000 seconds
Created 1 atoms
  using lattice units in orthogonal box = (0 0 0) to (50.396842 50.396842 50.396842)
  create_atoms CPU = 0.000 seconds
Created 1 atoms
  using lattice units in orthogonal box = (0 0 0) to (50.396842 50.396842 50.396842)
  create_atoms CPU = 0.000 seconds
Created 1 atoms
  using lattice units in orthogonal box = (0 0 0) to (50.396842 50.396842 50.396842)
  create_atoms CPU = 0.000 seconds
Created 1 atoms
  using lattice units in orthogonal box = (0 0 0) to (50.396842 50.396842 50.396842)
  create_atoms CPU = 0.000 seconds
Created 1 atoms
  using lattice units in orthogonal box = (0 0 0) to (50.396842 50.396842 50.396842)
  create_atoms CPU = 0.000 seconds
Created 1 atoms
  using lattice units in orthogonal box = (0 0 0) to (50.396842 50.396842 50.396842)
  create_atoms CPU = 0.000 seconds
Created 1 atoms
  using lattice units in orthogonal box = (0 0 0) to (50.396842 50.396842 50.396842)
  create_atoms CPU = 0.000 seconds
Created 1 atoms
  using lattice units in orthogonal box = (0 0 0) to (50.396842 50.396842 50.396842)
  create_atoms CPU = 0.000 seconds
Created 1 atoms
  using lattice units in orthogonal box = (0 0 0) to (50.396842 50.396842 50.396842)
  create_atoms CPU = 0.000 seconds
Created 1 atoms
  using lattice units in orthogonal box = (0 0 0) to (50.396842 50.396842 50.396842)
  create_atoms CPU = 0.000 seconds
Created 1 atoms
  using lattice units in orthogonal box = (0 0 0) to (50.396842 50.396842 50.396842)
  create_atoms CPU = 0.000 seconds
Created 1 atoms
  using lattice units in orthogonal box = (0 0 0) to (50.396842 50.396842 50.396842)
  create_atoms CPU = 0.000 seconds
Created 1 atoms
  using lattice units in orthogonal box = (0 0 0) to (50.396842 50.396842 50.396842)
  create_atoms CPU = 0.000 seconds
Created 1 atoms
  using lattice units in orthogonal box = (0 0 0) to (50.396842 50.396842 50.396842)
  create_atoms CPU = 0.000 seconds
Created 1 atoms
  using lattice units in orthogonal box = (0 0 0) to (50.396842 50.396842 50.396842)
  create_atoms CPU = 0.000 seconds
Created 1 atoms
  using lattice units in orthogonal box = (0 0 0) to (50.396842 50.396842 50.396842)
  create_atoms CPU = 0.000 seconds
Created 1 atoms
  using lattice units in orthogonal box = (0 0 0) to (50.396842 50.396842 50.396842)
  create_atoms CPU = 0.000 seconds
Created 1 atoms
  using lattice units in orthogonal box = (0 0 0) to (50.396842 50.396842 50.396842)
  create_atoms CPU = 0.000 seconds
Created 1 atoms
  using lattice units in orthogonal box = (0 0 0) to (50.396842 50.396842 50.396842)
  create_atoms CPU = 0.000 seconds
Created 1 atoms
  using lattice units in orthogonal box = (0 0 0) to (50.396842 50.396842 50.396842)
  create_atoms CPU = 0.000 seconds
Created 1 atoms
  using lattice units in orthogonal box = (0 0 0) to (50.396842 50.396842 50.396842)
  create_atoms CPU = 0.000 seconds
Created 1 atoms
  using lattice units in orthogonal box = (0 0 0) to (50.396842 50.396842 50.396842)
  create_atoms CPU = 0.000 seconds
Created 1 atoms
  using lattice units in orthogonal box = (0 0 0) to (50.396842 50.396842 50.396842)
  create_atoms CPU = 0.000 seconds
Created 1 atoms
  using lattice units in orthogonal box = (0 0 0) to (50.396842 50.396842 50.396842)
  create_atoms CPU = 0.000 seconds
Created 1 atoms
  using lattice units in orthogonal box = (0 0 0) to (50.396842 50.396842 50.396842)
  create_atoms CPU = 0.000 seconds
Created 1 atoms
  using lattice units in orthogonal box = (0 0 0) to (50.396842 50.396842 50.396842)
  create_atoms CPU = 0.000 seconds
Created 1 atoms
  using lattice units in orthogonal box = (0 0 0) to (50.396842 50.396842 50.396842)
  create_atoms CPU = 0.000 seconds
Created 1 atoms
  using lattice units in orthogonal box = (0 0 0) to (50.396842 50.396842 50.396842)
  create_atoms CPU = 0.000 seconds
Created 1 atoms
  using lattice units in orthogonal box = (0 0 0) to (50.396842 50.396842 50.396842)
  create_atoms CPU = 0.000 seconds
Created 1 atoms
  using lattice units in orthogonal box = (0 0 0) to (50.396842 50.396842 50.396842)
  create_atoms CPU = 0.000 seconds
Created 1 atoms
  using lattice units in orthogonal box = (0 0 0) to (50.396842 50.396842 50.396842)
  create_atoms CPU = 0.000 seconds
Created 1 atoms
  using lattice units in orthogonal box = (0 0 0) to (50.396842 50.396842 50.396842)
  create_atoms CPU = 0.001 seconds
Created 1 atoms
  using lattice units in orthogonal box = (0 0 0) to (50.396842 50.396842 50.396842)
  create_atoms CPU = 0.000 seconds
Created 1 atoms
  using lattice units in orthogonal box = (0 0 0) to (50.396842 50.396842 50.396842)
  create_atoms CPU = 0.000 seconds
Created 1 atoms
  using lattice units in orthogonal box = (0 0 0) to (50.396842 50.396842 50.396842)
  create_atoms CPU = 0.000 seconds
Created 1 atoms
  using lattice units in orthogonal box = (0 0 0) to (50.396842 50.396842 50.396842)
  create_atoms CPU = 0.000 seconds
Created 1 atoms
  using lattice units in orthogonal box = (0 0 0) to (50.396842 50.396842 50.396842)
  create_atoms CPU = 0.000 seconds
Created 1 atoms
  using lattice units in orthogonal box = (0 0 0) to (50.396842 50.396842 50.396842)
  create_atoms CPU = 0.000 seconds
Created 1 atoms
  using lattice units in orthogonal box = (0 0 0) to (50.396842 50.396842 50.396842)
  create_atoms CPU = 0.000 seconds
Created 1 atoms
  using lattice units in orthogonal box = (0 0 0) to (50.396842 50.396842 50.396842)
  create_atoms CPU = 0.000 seconds
Created 1 atoms
  using lattice units in orthogonal box = (0 0 0) to (50.396842 50.396842 50.396842)
  create_atoms CPU = 0.000 seconds
Created 1 atoms
  using lattice units in orthogonal box = (0 0 0) to (50.396842 50.396842 50.396842)
  create_atoms CPU = 0.000 seconds
Created 1 atoms
  using lattice units in orthogonal box = (0 0 0) to (50.396842 50.396842 50.396842)
  create_atoms CPU = 0.000 seconds
Created 1 atoms
  using lattice units in orthogonal box = (0 0 0) to (50.396842 50.396842 50.396842)
  create_atoms CPU = 0.000 seconds
Created 1 atoms
  using lattice units in orthogonal box = (0 0 0) to (50.396842 50.396842 50.396842)
  create_atoms CPU = 0.000 seconds
Created 1 atoms
  using lattice units in orthogonal box = (0 0 0) to (50.396842 50.396842 50.396842)
  create_atoms CPU = 0.000 seconds
Created 1 atoms
  using lattice units in orthogonal box = (0 0 0) to (50.396842 50.396842 50.396842)
  create_atoms CPU = 0.000 seconds
Created 1 atoms
  using lattice units in orthogonal box = (0 0 0) to (50.396842 50.396842 50.396842)
  create_atoms CPU = 0.000 seconds
Created 1 atoms
  using lattice units in orthogonal box = (0 0 0) to (50.396842 50.396842 50.396842)
  create_atoms CPU = 0.000 seconds
Created 1 atoms
  using lattice units in orthogonal box = (0 0 0) to (50.396842 50.396842 50.396842)
  create_atoms CPU = 0.000 seconds
Created 1 atoms
  using lattice units in orthogonal box = (0 0 0) to (50.396842 50.396842 50.396842)
  create_atoms CPU = 0.000 seconds
Created 1 atoms
  using lattice units in orthogonal box = (0 0 0) to (50.396842 50.396842 50.396842)
  create_atoms CPU = 0.000 seconds
Created 1 atoms
  using lattice units in orthogonal box = (0 0 0) to (50.396842 50.396842 50.396842)
  create_atoms CPU = 0.000 seconds
Created 1 atoms
  using lattice units in orthogonal box = (0 0 0) to (50.396842 50.396842 50.396842)
  create_atoms CPU = 0.000 seconds
Created 1 atoms
  using lattice units in orthogonal box = (0 0 0) to (50.396842 50.396842 50.396842)
  create_atoms CPU = 0.000 seconds
Created 1 atoms
  using lattice units in orthogonal box = (0 0 0) to (50.396842 50.396842 50.396842)
  create_atoms CPU = 0.000 seconds
Created 1 atoms
  using lattice units in orthogonal box = (0 0 0) to (50.396842 50.396842 50.396842)
  create_atoms CPU = 0.000 seconds
Created 1 atoms
  using lattice units in orthogonal box = (0 0 0) to (50.396842 50.396842 50.396842)
  create_atoms CPU = 0.000 seconds
Created 1 atoms
  using lattice units in orthogonal box = (0 0 0) to (50.396842 50.396842 50.396842)
  create_atoms CPU = 0.000 seconds
Created 1 atoms
  using lattice units in orthogonal box = (0 0 0) to (50.396842 50.396842 50.396842)
  create_atoms CPU = 0.000 seconds
Created 1 atoms
  using lattice units in orthogonal box = (0 0 0) to (50.396842 50.396842 50.396842)
  create_atoms CPU = 0.000 seconds
Created 1 atoms
  using lattice units in orthogonal box = (0 0 0) to (50.396842 50.396842 50.396842)
  create_atoms CPU = 0.000 seconds
Created 1 atoms
  using lattice units in orthogonal box = (0 0 0) to (50.396842 50.396842 50.396842)
  create_atoms CPU = 0.000 seconds
Created 1 atoms
  using lattice units in orthogonal box = (0 0 0) to (50.396842 50.396842 50.396842)
  create_atoms CPU = 0.000 seconds
Created 1 atoms
  using lattice units in orthogonal box = (0 0 0) to (50.396842 50.396842 50.396842)
  create_atoms CPU = 0.000 seconds
Created 1 atoms
  using lattice units in orthogonal box = (0 0 0) to (50.396842 50.396842 50.396842)
  create_atoms CPU = 0.000 seconds
Created 1 atoms
  using lattice units in orthogonal box = (0 0 0) to (50.396842 50.396842 50.396842)
  create_atoms CPU = 0.000 seconds
Created 1 atoms
  using lattice units in orthogonal box = (0 0 0) to (50.396842 50.396842 50.396842)
  create_atoms CPU = 0.000 seconds
Created 1 atoms
  using lattice units in orthogonal box = (0 0 0) to (50.396842 50.396842 50.396842)
  create_atoms CPU = 0.000 seconds
Created 1 atoms
  using lattice units in orthogonal box = (0 0 0) to (50.396842 50.396842 50.396842)
  create_atoms CPU = 0.001 seconds
Created 1 atoms
  using lattice units in orthogonal box = (0 0 0) to (50.396842 50.396842 50.396842)
  create_atoms CPU = 0.000 seconds
Created 1 atoms
  using lattice units in orthogonal box = (0 0 0) to (50.396842 50.396842 50.396842)
  create_atoms CPU = 0.000 seconds
Created 1 atoms
  using lattice units in orthogonal box = (0 0 0) to (50.396842 50.396842 50.396842)
  create_atoms CPU = 0.000 seconds
Created 1 atoms
  using lattice units in orthogonal box = (0 0 0) to (50.396842 50.396842 50.396842)
  create_atoms CPU = 0.000 seconds
Created 1 atoms
  using lattice units in orthogonal box = (0 0 0) to (50.396842 50.396842 50.396842)
  create_atoms CPU = 0.000 seconds
Created 1 atoms
  using lattice units in orthogonal box = (0 0 0) to (50.396842 50.396842 50.396842)
  create_atoms CPU = 0.000 seconds
Created 1 atoms
  using lattice units in orthogonal box = (0 0 0) to (50.396842 50.396842 50.396842)
  create_atoms CPU = 0.000 seconds
Created 1 atoms
  using lattice units in orthogonal box = (0 0 0) to (50.396842 50.396842 50.396842)
  create_atoms CPU = 0.000 seconds
Created 1 atoms
  using lattice units in orthogonal box = (0 0 0) to (50.396842 50.396842 50.396842)
  create_atoms CPU = 0.000 seconds
Created 1 atoms
  using lattice units in orthogonal box = (0 0 0) to (50.396842 50.396842 50.396842)
  create_atoms CPU = 0.000 seconds
Created 1 atoms
  using lattice units in orthogonal box = (0 0 0) to (50.396842 50.396842 50.396842)
  create_atoms CPU = 0.000 seconds
Created 1 atoms
  using lattice units in orthogonal box = (0 0 0) to (50.396842 50.396842 50.396842)
  create_atoms CPU = 0.000 seconds
Created 1 atoms
  using lattice units in orthogonal box = (0 0 0) to (50.396842 50.396842 50.396842)
  create_atoms CPU = 0.000 seconds
Created 1 atoms
  using lattice units in orthogonal box = (0 0 0) to (50.396842 50.396842 50.396842)
  create_atoms CPU = 0.000 seconds
Created 1 atoms
  using lattice units in orthogonal box = (0 0 0) to (50.396842 50.396842 50.396842)
  create_atoms CPU = 0.000 seconds
Created 1 atoms
  using lattice units in orthogonal box = (0 0 0) to (50.396842 50.396842 50.396842)
  create_atoms CPU = 0.000 seconds
Created 1 atoms
  using lattice units in orthogonal box = (0 0 0) to (50.396842 50.396842 50.396842)
  create_atoms CPU = 0.000 seconds
Created 1 atoms
  using lattice units in orthogonal box = (0 0 0) to (50.396842 50.396842 50.396842)
  create_atoms CPU = 0.000 seconds
Created 1 atoms
  using lattice units in orthogonal box = (0 0 0) to (50.396842 50.396842 50.396842)
  create_atoms CPU = 0.000 seconds
Created 1 atoms
  using lattice units in orthogonal box = (0 0 0) to (50.396842 50.396842 50.396842)
  create_atoms CPU = 0.000 seconds
Created 1 atoms
  using lattice units in orthogonal box = (0 0 0) to (50.396842 50.396842 50.396842)
  create_atoms CPU = 0.000 seconds
Created 1 atoms
  using lattice units in orthogonal box = (0 0 0) to (50.396842 50.396842 50.396842)
  create_atoms CPU = 0.000 seconds
Created 1 atoms
  using lattice units in orthogonal box = (0 0 0) to (50.396842 50.396842 50.396842)
  create_atoms CPU = 0.000 seconds
Created 1 atoms
  using lattice units in orthogonal box = (0 0 0) to (50.396842 50.396842 50.396842)
  create_atoms CPU = 0.000 seconds
Created 1 atoms
  using lattice units in orthogonal box = (0 0 0) to (50.396842 50.396842 50.396842)
  create_atoms CPU = 0.000 seconds
Created 1 atoms
  using lattice units in orthogonal box = (0 0 0) to (50.396842 50.396842 50.396842)
  create_atoms CPU = 0.000 seconds
Created 1 atoms
  using lattice units in orthogonal box = (0 0 0) to (50.396842 50.396842 50.396842)
  create_atoms CPU = 0.000 seconds
Created 1 atoms
  using lattice units in orthogonal box = (0 0 0) to (50.396842 50.396842 50.396842)
  create_atoms CPU = 0.000 seconds
Created 1 atoms
  using lattice units in orthogonal box = (0 0 0) to (50.396842 50.396842 50.396842)
  create_atoms CPU = 0.000 seconds
Created 1 atoms
  using lattice units in orthogonal box = (0 0 0) to (50.396842 50.396842 50.396842)
  create_atoms CPU = 0.000 seconds
Created 1 atoms
  using lattice units in orthogonal box = (0 0 0) to (50.396842 50.396842 50.396842)
  create_atoms CPU = 0.000 seconds
Created 1 atoms
  using lattice units in orthogonal box = (0 0 0) to (50.396842 50.396842 50.396842)
  create_atoms CPU = 0.000 seconds
Created 1 atoms
  using lattice units in orthogonal box = (0 0 0) to (50.396842 50.396842 50.396842)
  create_atoms CPU = 0.000 seconds
Created 1 atoms
  using lattice units in orthogonal box = (0 0 0) to (50.396842 50.396842 50.396842)
  create_atoms CPU = 0.000 seconds
Created 1 atoms
  using lattice units in orthogonal box = (0 0 0) to (50.396842 50.396842 50.396842)
  create_atoms CPU = 0.000 seconds
Created 1 atoms
  using lattice units in orthogonal box = (0 0 0) to (50.396842 50.396842 50.396842)
  create_atoms CPU = 0.000 seconds
Created 1 atoms
  using lattice units in orthogonal box = (0 0 0) to (50.396842 50.396842 50.396842)
  create_atoms CPU = 0.000 seconds
Created 1 atoms
  using lattice units in orthogonal box = (0 0 0) to (50.396842 50.396842 50.396842)
  create_atoms CPU = 0.001 seconds
Created 1 atoms
  using lattice units in orthogonal box = (0 0 0) to (50.396842 50.396842 50.396842)
  create_atoms CPU = 0.000 seconds
Created 1 atoms
  using lattice units in orthogonal box = (0 0 0) to (50.396842 50.396842 50.396842)
  create_atoms CPU = 0.000 seconds
Created 1 atoms
  using lattice units in orthogonal box = (0 0 0) to (50.396842 50.396842 50.396842)
  create_atoms CPU = 0.000 seconds
Created 1 atoms
  using lattice units in orthogonal box = (0 0 0) to (50.396842 50.396842 50.396842)
  create_atoms CPU = 0.000 seconds
Created 1 atoms
  using lattice units in orthogonal box = (0 0 0) to (50.396842 50.396842 50.396842)
  create_atoms CPU = 0.000 seconds
Created 1 atoms
  using lattice units in orthogonal box = (0 0 0) to (50.396842 50.396842 50.396842)
  create_atoms CPU = 0.000 seconds
Created 1 atoms
  using lattice units in orthogonal box = (0 0 0) to (50.396842 50.396842 50.396842)
  create_atoms CPU = 0.000 seconds
Created 1 atoms
  using lattice units in orthogonal box = (0 0 0) to (50.396842 50.396842 50.396842)
  create_atoms CPU = 0.000 seconds
Created 1 atoms
  using lattice units in orthogonal box = (0 0 0) to (50.396842 50.396842 50.396842)
  create_atoms CPU = 0.000 seconds
Created 1 atoms
  using lattice units in orthogonal box = (0 0 0) to (50.396842 50.396842 50.396842)
  create_atoms CPU = 0.000 seconds
Created 1 atoms
  using lattice units in orthogonal box = (0 0 0) to (50.396842 50.396842 50.396842)
  create_atoms CPU = 0.000 seconds
Created 1 atoms
  using lattice units in orthogonal box = (0 0 0) to (50.396842 50.396842 50.396842)
  create_atoms CPU = 0.000 seconds
Created 1 atoms
  using lattice units in orthogonal box = (0 0 0) to (50.396842 50.396842 50.396842)
  create_atoms CPU = 0.000 seconds
Created 1 atoms
  using lattice units in orthogonal box = (0 0 0) to (50.396842 50.396842 50.396842)
  create_atoms CPU = 0.000 seconds
Created 1 atoms
  using lattice units in orthogonal box = (0 0 0) to (50.396842 50.396842 50.396842)
  create_atoms CPU = 0.000 seconds
Created 1 atoms
  using lattice units in orthogonal box = (0 0 0) to (50.396842 50.396842 50.396842)
  create_atoms CPU = 0.000 seconds
Created 1 atoms
  using lattice units in orthogonal box = (0 0 0) to (50.396842 50.396842 50.396842)
  create_atoms CPU = 0.000 seconds
Created 1 atoms
  using lattice units in orthogonal box = (0 0 0) to (50.396842 50.396842 50.396842)
  create_atoms CPU = 0.000 seconds
Created 1 atoms
  using lattice units in orthogonal box = (0 0 0) to (50.396842 50.396842 50.396842)
  create_atoms CPU = 0.000 seconds
Created 1 atoms
  using lattice units in orthogonal box = (0 0 0) to (50.396842 50.396842 50.396842)
  create_atoms CPU = 0.000 seconds
Created 1 atoms
  using lattice units in orthogonal box = (0 0 0) to (50.396842 50.396842 50.396842)
  create_atoms CPU = 0.000 seconds
Created 1 atoms
  using lattice units in orthogonal box = (0 0 0) to (50.396842 50.396842 50.396842)
  create_atoms CPU = 0.000 seconds
Created 1 atoms
  using lattice units in orthogonal box = (0 0 0) to (50.396842 50.396842 50.396842)
  create_atoms CPU = 0.000 seconds
Created 1 atoms
  using lattice units in orthogonal box = (0 0 0) to (50.396842 50.396842 50.396842)
  create_atoms CPU = 0.000 seconds
Created 1 atoms
  using lattice units in orthogonal box = (0 0 0) to (50.396842 50.396842 50.396842)
  create_atoms CPU = 0.000 seconds
Created 1 atoms
  using lattice units in orthogonal box = (0 0 0) to (50.396842 50.396842 50.396842)
  create_atoms CPU = 0.000 seconds
Created 1 atoms
  using lattice units in orthogonal box = (0 0 0) to (50.396842 50.396842 50.396842)
  create_atoms CPU = 0.000 seconds
Created 1 atoms
  using lattice units in orthogonal box = (0 0 0) to (50.396842 50.396842 50.396842)
  create_atoms CPU = 0.000 seconds
Created 1 atoms
  using lattice units in orthogonal box = (0 0 0) to (50.396842 50.396842 50.396842)
  create_atoms CPU = 0.000 seconds
Created 1 atoms
  using lattice units in orthogonal box = (0 0 0) to (50.396842 50.396842 50.396842)
  create_atoms CPU = 0.000 seconds
Created 1 atoms
  using lattice units in orthogonal box = (0 0 0) to (50.396842 50.396842 50.396842)
  create_atoms CPU = 0.000 seconds
Created 1 atoms
  using lattice units in orthogonal box = (0 0 0) to (50.396842 50.396842 50.396842)
  create_atoms CPU = 0.000 seconds
Created 1 atoms
  using lattice units in orthogonal box = (0 0 0) to (50.396842 50.396842 50.396842)
  create_atoms CPU = 0.000 seconds
Created 1 atoms
  using lattice units in orthogonal box = (0 0 0) to (50.396842 50.396842 50.396842)
  create_atoms CPU = 0.000 seconds
Created 1 atoms
  using lattice units in orthogonal box = (0 0 0) to (50.396842 50.396842 50.396842)
  create_atoms CPU = 0.000 seconds
Created 1 atoms
  using lattice units in orthogonal box = (0 0 0) to (50.396842 50.396842 50.396842)
  create_atoms CPU = 0.000 seconds
Created 1 atoms
  using lattice units in orthogonal box = (0 0 0) to (50.396842 50.396842 50.396842)
  create_atoms CPU = 0.000 seconds
Created 1 atoms
  using lattice units in orthogonal box = (0 0 0) to (50.396842 50.396842 50.396842)
  create_atoms CPU = 0.001 seconds
Created 1 atoms
  using lattice units in orthogonal box = (0 0 0) to (50.396842 50.396842 50.396842)
  create_atoms CPU = 0.000 seconds
Created 1 atoms
  using lattice units in orthogonal box = (0 0 0) to (50.396842 50.396842 50.396842)
  create_atoms CPU = 0.000 seconds
Created 1 atoms
  using lattice units in orthogonal box = (0 0 0) to (50.396842 50.396842 50.396842)
  create_atoms CPU = 0.000 seconds
Created 1 atoms
  using lattice units in orthogonal box = (0 0 0) to (50.396842 50.396842 50.396842)
  create_atoms CPU = 0.000 seconds
Created 1 atoms
  using lattice units in orthogonal box = (0 0 0) to (50.396842 50.396842 50.396842)
  create_atoms CPU = 0.000 seconds
Created 1 atoms
  using lattice units in orthogonal box = (0 0 0) to (50.396842 50.396842 50.396842)
  create_atoms CPU = 0.000 seconds
Created 1 atoms
  using lattice units in orthogonal box = (0 0 0) to (50.396842 50.396842 50.396842)
  create_atoms CPU = 0.000 seconds
Created 1 atoms
  using lattice units in orthogonal box = (0 0 0) to (50.396842 50.396842 50.396842)
  create_atoms CPU = 0.000 seconds
Created 1 atoms
  using lattice units in orthogonal box = (0 0 0) to (50.396842 50.396842 50.396842)
  create_atoms CPU = 0.000 seconds
Created 1 atoms
  using lattice units in orthogonal box = (0 0 0) to (50.396842 50.396842 50.396842)
  create_atoms CPU = 0.000 seconds
Created 1 atoms
  using lattice units in orthogonal box = (0 0 0) to (50.396842 50.396842 50.396842)
  create_atoms CPU = 0.000 seconds
Created 1 atoms
  using lattice units in orthogonal box = (0 0 0) to (50.396842 50.396842 50.396842)
  create_atoms CPU = 0.000 seconds
Created 1 atoms
  using lattice units in orthogonal box = (0 0 0) to (50.396842 50.396842 50.396842)
  create_atoms CPU = 0.000 seconds
Created 1 atoms
  using lattice units in orthogonal box = (0 0 0) to (50.396842 50.396842 50.396842)
  create_atoms CPU = 0.000 seconds
Created 1 atoms
  using lattice units in orthogonal box = (0 0 0) to (50.396842 50.396842 50.396842)
  create_atoms CPU = 0.000 seconds
Created 1 atoms
  using lattice units in orthogonal box = (0 0 0) to (50.396842 50.396842 50.396842)
  create_atoms CPU = 0.000 seconds
Created 1 atoms
  using lattice units in orthogonal box = (0 0 0) to (50.396842 50.396842 50.396842)
  create_atoms CPU = 0.000 seconds
Created 1 atoms
  using lattice units in orthogonal box = (0 0 0) to (50.396842 50.396842 50.396842)
  create_atoms CPU = 0.000 seconds
Created 1 atoms
  using lattice units in orthogonal box = (0 0 0) to (50.396842 50.396842 50.396842)
  create_atoms CPU = 0.000 seconds
Created 1 atoms
  using lattice units in orthogonal box = (0 0 0) to (50.396842 50.396842 50.396842)
  create_atoms CPU = 0.000 seconds
Created 1 atoms
  using lattice units in orthogonal box = (0 0 0) to (50.396842 50.396842 50.396842)
  create_atoms CPU = 0.000 seconds
Created 1 atoms
  using lattice units in orthogonal box = (0 0 0) to (50.396842 50.396842 50.396842)
  create_atoms CPU = 0.000 seconds
Created 1 atoms
  using lattice units in orthogonal box = (0 0 0) to (50.396842 50.396842 50.396842)
  create_atoms CPU = 0.000 seconds
Created 1 atoms
  using lattice units in orthogonal box = (0 0 0) to (50.396842 50.396842 50.396842)
  create_atoms CPU = 0.000 seconds
Created 1 atoms
  using lattice units in orthogonal box = (0 0 0) to (50.396842 50.396842 50.396842)
  create_atoms CPU = 0.000 seconds
Created 1 atoms
  using lattice units in orthogonal box = (0 0 0) to (50.396842 50.396842 50.396842)
  create_atoms CPU = 0.000 seconds
Created 1 atoms
  using lattice units in orthogonal box = (0 0 0) to (50.396842 50.396842 50.396842)
  create_atoms CPU = 0.000 seconds
Created 1 atoms
  using lattice units in orthogonal box = (0 0 0) to (50.396842 50.396842 50.396842)
  create_atoms CPU = 0.000 seconds
Created 1 atoms
  using lattice units in orthogonal box = (0 0 0) to (50.396842 50.396842 50.396842)
  create_atoms CPU = 0.000 seconds
Created 1 atoms
  using lattice units in orthogonal box = (0 0 0) to (50.396842 50.396842 50.396842)
  create_atoms CPU = 0.000 seconds
Created 1 atoms
  using lattice units in orthogonal box = (0 0 0) to (50.396842 50.396842 50.396842)
  create_atoms CPU = 0.000 seconds
Created 1 atoms
  using lattice units in orthogonal box = (0 0 0) to (50.396842 50.396842 50.396842)
  create_atoms CPU = 0.000 seconds
Created 1 atoms
  using lattice units in orthogonal box = (0 0 0) to (50.396842 50.396842 50.396842)
  create_atoms CPU = 0.000 seconds
Created 1 atoms
  using lattice units in orthogonal box = (0 0 0) to (50.396842 50.396842 50.396842)
  create_atoms CPU = 0.000 seconds
Created 1 atoms
  using lattice units in orthogonal box = (0 0 0) to (50.396842 50.396842 50.396842)
  create_atoms CPU = 0.000 seconds
Created 1 atoms
  using lattice units in orthogonal box = (0 0 0) to (50.396842 50.396842 50.396842)
  create_atoms CPU = 0.000 seconds
Created 1 atoms
  using lattice units in orthogonal box = (0 0 0) to (50.396842 50.396842 50.396842)
  create_atoms CPU = 0.000 seconds
Created 1 atoms
  using lattice units in orthogonal box = (0 0 0) to (50.396842 50.396842 50.396842)
  create_atoms CPU = 0.001 seconds
Created 1 atoms
  using lattice units in orthogonal box = (0 0 0) to (50.396842 50.396842 50.396842)
  create_atoms CPU = 0.000 seconds
Created 1 atoms
  using lattice units in orthogonal box = (0 0 0) to (50.396842 50.396842 50.396842)
  create_atoms CPU = 0.000 seconds
Created 1 atoms
  using lattice units in orthogonal box = (0 0 0) to (50.396842 50.396842 50.396842)
  create_atoms CPU = 0.000 seconds
Created 1 atoms
  using lattice units in orthogonal box = (0 0 0) to (50.396842 50.396842 50.396842)
  create_atoms CPU = 0.000 seconds
Created 1 atoms
  using lattice units in orthogonal box = (0 0 0) to (50.396842 50.396842 50.396842)
  create_atoms CPU = 0.000 seconds
Created 1 atoms
  using lattice units in orthogonal box = (0 0 0) to (50.396842 50.396842 50.396842)
  create_atoms CPU = 0.000 seconds
Created 1 atoms
  using lattice units in orthogonal box = (0 0 0) to (50.396842 50.396842 50.396842)
  create_atoms CPU = 0.000 seconds
Created 1 atoms
  using lattice units in orthogonal box = (0 0 0) to (50.396842 50.396842 50.396842)
  create_atoms CPU = 0.000 seconds
Created 1 atoms
  using lattice units in orthogonal box = (0 0 0) to (50.396842 50.396842 50.396842)
  create_atoms CPU = 0.000 seconds
Created 1 atoms
  using lattice units in orthogonal box = (0 0 0) to (50.396842 50.396842 50.396842)
  create_atoms CPU = 0.000 seconds
Created 1 atoms
  using lattice units in orthogonal box = (0 0 0) to (50.396842 50.396842 50.396842)
  create_atoms CPU = 0.000 seconds
Created 1 atoms
  using lattice units in orthogonal box = (0 0 0) to (50.396842 50.396842 50.396842)
  create_atoms CPU = 0.000 seconds
Created 1 atoms
  using lattice units in orthogonal box = (0 0 0) to (50.396842 50.396842 50.396842)
  create_atoms CPU = 0.000 seconds
Created 1 atoms
  using lattice units in orthogonal box = (0 0 0) to (50.396842 50.396842 50.396842)
  create_atoms CPU = 0.000 seconds
Created 1 atoms
  using lattice units in orthogonal box = (0 0 0) to (50.396842 50.396842 50.396842)
  create_atoms CPU = 0.000 seconds
Created 1 atoms
  using lattice units in orthogonal box = (0 0 0) to (50.396842 50.396842 50.396842)
  create_atoms CPU = 0.000 seconds
Created 1 atoms
  using lattice units in orthogonal box = (0 0 0) to (50.396842 50.396842 50.396842)
  create_atoms CPU = 0.000 seconds
Created 1 atoms
  using lattice units in orthogonal box = (0 0 0) to (50.396842 50.396842 50.396842)
  create_atoms CPU = 0.000 seconds
Created 1 atoms
  using lattice units in orthogonal box = (0 0 0) to (50.396842 50.396842 50.396842)
  create_atoms CPU = 0.000 seconds
Created 1 atoms
  using lattice units in orthogonal box = (0 0 0) to (50.396842 50.396842 50.396842)
  create_atoms CPU = 0.000 seconds
Created 1 atoms
  using lattice units in orthogonal box = (0 0 0) to (50.396842 50.396842 50.396842)
  create_atoms CPU = 0.000 seconds
Created 1 atoms
  using lattice units in orthogonal box = (0 0 0) to (50.396842 50.396842 50.396842)
  create_atoms CPU = 0.000 seconds
Created 1 atoms
  using lattice units in orthogonal box = (0 0 0) to (50.396842 50.396842 50.396842)
  create_atoms CPU = 0.000 seconds
Created 1 atoms
  using lattice units in orthogonal box = (0 0 0) to (50.396842 50.396842 50.396842)
  create_atoms CPU = 0.000 seconds
Created 1 atoms
  using lattice units in orthogonal box = (0 0 0) to (50.396842 50.396842 50.396842)
  create_atoms CPU = 0.000 seconds
Created 1 atoms
  using lattice units in orthogonal box = (0 0 0) to (50.396842 50.396842 50.396842)
  create_atoms CPU = 0.000 seconds
Created 1 atoms
  using lattice units in orthogonal box = (0 0 0) to (50.396842 50.396842 50.396842)
  create_atoms CPU = 0.000 seconds
Created 1 atoms
  using lattice units in orthogonal box = (0 0 0) to (50.396842 50.396842 50.396842)
  create_atoms CPU = 0.000 seconds
Created 1 atoms
  using lattice units in orthogonal box = (0 0 0) to (50.396842 50.396842 50.396842)
  create_atoms CPU = 0.000 seconds
Created 1 atoms
  using lattice units in orthogonal box = (0 0 0) to (50.396842 50.396842 50.396842)
  create_atoms CPU = 0.000 seconds
Created 1 atoms
  using lattice units in orthogonal box = (0 0 0) to (50.396842 50.396842 50.396842)
  create_atoms CPU = 0.000 seconds
Created 1 atoms
  using lattice units in orthogonal box = (0 0 0) to (50.396842 50.396842 50.396842)
  create_atoms CPU = 0.000 seconds
Created 1 atoms
  using lattice units in orthogonal box = (0 0 0) to (50.396842 50.396842 50.396842)
  create_atoms CPU = 0.000 seconds
Created 1 atoms
  using lattice units in orthogonal box = (0 0 0) to (50.396842 50.396842 50.396842)
  create_atoms CPU = 0.000 seconds
Created 1 atoms
  using lattice units in orthogonal box = (0 0 0) to (50.396842 50.396842 50.396842)
  create_atoms CPU = 0.000 seconds
Created 1 atoms
  using lattice units in orthogonal box = (0 0 0) to (50.396842 50.396842 50.396842)
  create_atoms CPU = 0.000 seconds
Created 1 atoms
  using lattice units in orthogonal box = (0 0 0) to (50.396842 50.396842 50.396842)
  create_atoms CPU = 0.000 seconds
Created 1 atoms
  using lattice units in orthogonal box = (0 0 0) to (50.396842 50.396842 50.396842)
  create_atoms CPU = 0.001 seconds
Created 1 atoms
  using lattice units in orthogonal box = (0 0 0) to (50.396842 50.396842 50.396842)
  create_atoms CPU = 0.000 seconds
Created 1 atoms
  using lattice units in orthogonal box = (0 0 0) to (50.396842 50.396842 50.396842)
  create_atoms CPU = 0.000 seconds
Created 1 atoms
  using lattice units in orthogonal box = (0 0 0) to (50.396842 50.396842 50.396842)
  create_atoms CPU = 0.000 seconds
Created 1 atoms
  using lattice units in orthogonal box = (0 0 0) to (50.396842 50.396842 50.396842)
  create_atoms CPU = 0.000 seconds
Created 1 atoms
  using lattice units in orthogonal box = (0 0 0) to (50.396842 50.396842 50.396842)
  create_atoms CPU = 0.000 seconds
Created 1 atoms
  using lattice units in orthogonal box = (0 0 0) to (50.396842 50.396842 50.396842)
  create_atoms CPU = 0.000 seconds
Created 1 atoms
  using lattice units in orthogonal box = (0 0 0) to (50.396842 50.396842 50.396842)
  create_atoms CPU = 0.000 seconds
Created 1 atoms
  using lattice units in orthogonal box = (0 0 0) to (50.396842 50.396842 50.396842)
  create_atoms CPU = 0.000 seconds
Created 1 atoms
  using lattice units in orthogonal box = (0 0 0) to (50.396842 50.396842 50.396842)
  create_atoms CPU = 0.000 seconds
Created 1 atoms
  using lattice units in orthogonal box = (0 0 0) to (50.396842 50.396842 50.396842)
  create_atoms CPU = 0.000 seconds
Created 1 atoms
  using lattice units in orthogonal box = (0 0 0) to (50.396842 50.396842 50.396842)
  create_atoms CPU = 0.000 seconds
Created 1 atoms
  using lattice units in orthogonal box = (0 0 0) to (50.396842 50.396842 50.396842)
  create_atoms CPU = 0.000 seconds
Created 1 atoms
  using lattice units in orthogonal box = (0 0 0) to (50.396842 50.396842 50.396842)
  create_atoms CPU = 0.000 seconds
Created 1 atoms
  using lattice units in orthogonal box = (0 0 0) to (50.396842 50.396842 50.396842)
  create_atoms CPU = 0.000 seconds
Created 1 atoms
  using lattice units in orthogonal box = (0 0 0) to (50.396842 50.396842 50.396842)
  create_atoms CPU = 0.000 seconds
Created 1 atoms
  using lattice units in orthogonal box = (0 0 0) to (50.396842 50.396842 50.396842)
  create_atoms CPU = 0.000 seconds
Created 1 atoms
  using lattice units in orthogonal box = (0 0 0) to (50.396842 50.396842 50.396842)
  create_atoms CPU = 0.000 seconds
Created 1 atoms
  using lattice units in orthogonal box = (0 0 0) to (50.396842 50.396842 50.396842)
  create_atoms CPU = 0.000 seconds
Created 1 atoms
  using lattice units in orthogonal box = (0 0 0) to (50.396842 50.396842 50.396842)
  create_atoms CPU = 0.000 seconds
Created 1 atoms
  using lattice units in orthogonal box = (0 0 0) to (50.396842 50.396842 50.396842)
  create_atoms CPU = 0.000 seconds
Created 1 atoms
  using lattice units in orthogonal box = (0 0 0) to (50.396842 50.396842 50.396842)
  create_atoms CPU = 0.000 seconds
Created 1 atoms
  using lattice units in orthogonal box = (0 0 0) to (50.396842 50.396842 50.396842)
  create_atoms CPU = 0.000 seconds
Created 1 atoms
  using lattice units in orthogonal box = (0 0 0) to (50.396842 50.396842 50.396842)
  create_atoms CPU = 0.000 seconds
Created 1 atoms
  using lattice units in orthogonal box = (0 0 0) to (50.396842 50.396842 50.396842)
  create_atoms CPU = 0.000 seconds
Created 1 atoms
  using lattice units in orthogonal box = (0 0 0) to (50.396842 50.396842 50.396842)
  create_atoms CPU = 0.000 seconds
Created 1 atoms
  using lattice units in orthogonal box = (0 0 0) to (50.396842 50.396842 50.396842)
  create_atoms CPU = 0.000 seconds
Created 1 atoms
  using lattice units in orthogonal box = (0 0 0) to (50.396842 50.396842 50.396842)
  create_atoms CPU = 0.000 seconds
Created 1 atoms
  using lattice units in orthogonal box = (0 0 0) to (50.396842 50.396842 50.396842)
  create_atoms CPU = 0.000 seconds
Created 1 atoms
  using lattice units in orthogonal box = (0 0 0) to (50.396842 50.396842 50.396842)
  create_atoms CPU = 0.000 seconds
Created 1 atoms
  using lattice units in orthogonal box = (0 0 0) to (50.396842 50.396842 50.396842)
  create_atoms CPU = 0.000 seconds
Created 1 atoms
  using lattice units in orthogonal box = (0 0 0) to (50.396842 50.396842 50.396842)
  create_atoms CPU = 0.000 seconds
Created 1 atoms
  using lattice units in orthogonal box = (0 0 0) to (50.396842 50.396842 50.396842)
  create_atoms CPU = 0.000 seconds
Created 1 atoms
  using lattice units in orthogonal box = (0 0 0) to (50.396842 50.396842 50.396842)
  create_atoms CPU = 0.000 seconds
Created 1 atoms
  using lattice units in orthogonal box = (0 0 0) to (50.396842 50.396842 50.396842)
  create_atoms CPU = 0.000 seconds
Created 1 atoms
  using lattice units in orthogonal box = (0 0 0) to (50.396842 50.396842 50.396842)
  create_atoms CPU = 0.000 seconds
Created 1 atoms
  using lattice units in orthogonal box = (0 0 0) to (50.396842 50.396842 50.396842)
  create_atoms CPU = 0.000 seconds
Created 1 atoms
  using lattice units in orthogonal box = (0 0 0) to (50.396842 50.396842 50.396842)
  create_atoms CPU = 0.001 seconds
Created 1 atoms
  using lattice units in orthogonal box = (0 0 0) to (50.396842 50.396842 50.396842)
  create_atoms CPU = 0.000 seconds
Created 1 atoms
  using lattice units in orthogonal box = (0 0 0) to (50.396842 50.396842 50.396842)
  create_atoms CPU = 0.000 seconds
Created 1 atoms
  using lattice units in orthogonal box = (0 0 0) to (50.396842 50.396842 50.396842)
  create_atoms CPU = 0.000 seconds
Created 1 atoms
  using lattice units in orthogonal box = (0 0 0) to (50.396842 50.396842 50.396842)
  create_atoms CPU = 0.000 seconds
Created 1 atoms
  using lattice units in orthogonal box = (0 0 0) to (50.396842 50.396842 50.396842)
  create_atoms CPU = 0.000 seconds
Created 1 atoms
  using lattice units in orthogonal box = (0 0 0) to (50.396842 50.396842 50.396842)
  create_atoms CPU = 0.000 seconds
Created 1 atoms
  using lattice units in orthogonal box = (0 0 0) to (50.396842 50.396842 50.396842)
  create_atoms CPU = 0.000 seconds
Created 1 atoms
  using lattice units in orthogonal box = (0 0 0) to (50.396842 50.396842 50.396842)
  create_atoms CPU = 0.000 seconds
Created 1 atoms
  using lattice units in orthogonal box = (0 0 0) to (50.396842 50.396842 50.396842)
  create_atoms CPU = 0.000 seconds
Created 1 atoms
  using lattice units in orthogonal box = (0 0 0) to (50.396842 50.396842 50.396842)
  create_atoms CPU = 0.000 seconds
Created 1 atoms
  using lattice units in orthogonal box = (0 0 0) to (50.396842 50.396842 50.396842)
  create_atoms CPU = 0.000 seconds
Created 1 atoms
  using lattice units in orthogonal box = (0 0 0) to (50.396842 50.396842 50.396842)
  create_atoms CPU = 0.000 seconds
Created 1 atoms
  using lattice units in orthogonal box = (0 0 0) to (50.396842 50.396842 50.396842)
  create_atoms CPU = 0.000 seconds
Created 1 atoms
  using lattice units in orthogonal box = (0 0 0) to (50.396842 50.396842 50.396842)
  create_atoms CPU = 0.000 seconds
Created 1 atoms
  using lattice units in orthogonal box = (0 0 0) to (50.396842 50.396842 50.396842)
  create_atoms CPU = 0.000 seconds
Created 1 atoms
  using lattice units in orthogonal box = (0 0 0) to (50.396842 50.396842 50.396842)
  create_atoms CPU = 0.000 seconds
Created 1 atoms
  using lattice units in orthogonal box = (0 0 0) to (50.396842 50.396842 50.396842)
  create_atoms CPU = 0.000 seconds
Created 1 atoms
  using lattice units in orthogonal box = (0 0 0) to (50.396842 50.396842 50.396842)
  create_atoms CPU = 0.000 seconds
Created 1 atoms
  using lattice units in orthogonal box = (0 0 0) to (50.396842 50.396842 50.396842)
  create_atoms CPU = 0.000 seconds
Created 1 atoms
  using lattice units in orthogonal box = (0 0 0) to (50.396842 50.396842 50.396842)
  create_atoms CPU = 0.000 seconds
Created 1 atoms
  using lattice units in orthogonal box = (0 0 0) to (50.396842 50.396842 50.396842)
  create_atoms CPU = 0.000 seconds
Created 1 atoms
  using lattice units in orthogonal box = (0 0 0) to (50.396842 50.396842 50.396842)
  create_atoms CPU = 0.000 seconds
Created 1 atoms
  using lattice units in orthogonal box = (0 0 0) to (50.396842 50.396842 50.396842)
  create_atoms CPU = 0.000 seconds
Created 1 atoms
  using lattice units in orthogonal box = (0 0 0) to (50.396842 50.396842 50.396842)
  create_atoms CPU = 0.000 seconds
Created 1 atoms
  using lattice units in orthogonal box = (0 0 0) to (50.396842 50.396842 50.396842)
  create_atoms CPU = 0.000 seconds
Created 1 atoms
  using lattice units in orthogonal box = (0 0 0) to (50.396842 50.396842 50.396842)
  create_atoms CPU = 0.000 seconds
Created 1 atoms
  using lattice units in orthogonal box = (0 0 0) to (50.396842 50.396842 50.396842)
  create_atoms CPU = 0.000 seconds
Created 1 atoms
  using lattice units in orthogonal box = (0 0 0) to (50.396842 50.396842 50.396842)
  create_atoms CPU = 0.000 seconds
Created 1 atoms
  using lattice units in orthogonal box = (0 0 0) to (50.396842 50.396842 50.396842)
  create_atoms CPU = 0.000 seconds
Created 1 atoms
  using lattice units in orthogonal box = (0 0 0) to (50.396842 50.396842 50.396842)
  create_atoms CPU = 0.000 seconds
Created 1 atoms
  using lattice units in orthogonal box = (0 0 0) to (50.396842 50.396842 50.396842)
  create_atoms CPU = 0.000 seconds
Created 1 atoms
  using lattice units in orthogonal box = (0 0 0) to (50.396842 50.396842 50.396842)
  create_atoms CPU = 0.000 seconds
Created 1 atoms
  using lattice units in orthogonal box = (0 0 0) to (50.396842 50.396842 50.396842)
  create_atoms CPU = 0.000 seconds
Created 1 atoms
  using lattice units in orthogonal box = (0 0 0) to (50.396842 50.396842 50.396842)
  create_atoms CPU = 0.000 seconds
Created 1 atoms
  using lattice units in orthogonal box = (0 0 0) to (50.396842 50.396842 50.396842)
  create_atoms CPU = 0.000 seconds
Created 1 atoms
  using lattice units in orthogonal box = (0 0 0) to (50.396842 50.396842 50.396842)
  create_atoms CPU = 0.000 seconds
Created 1 atoms
  using lattice units in orthogonal box = (0 0 0) to (50.396842 50.396842 50.396842)
  create_atoms CPU = 0.000 seconds
Created 1 atoms
  using lattice units in orthogonal box = (0 0 0) to (50.396842 50.396842 50.396842)
  create_atoms CPU = 0.001 seconds
Created 1 atoms
  using lattice units in orthogonal box = (0 0 0) to (50.396842 50.396842 50.396842)
  create_atoms CPU = 0.000 seconds
Created 1 atoms
  using lattice units in orthogonal box = (0 0 0) to (50.396842 50.396842 50.396842)
  create_atoms CPU = 0.000 seconds
Created 1 atoms
  using lattice units in orthogonal box = (0 0 0) to (50.396842 50.396842 50.396842)
  create_atoms CPU = 0.000 seconds
Created 1 atoms
  using lattice units in orthogonal box = (0 0 0) to (50.396842 50.396842 50.396842)
  create_atoms CPU = 0.000 seconds
Created 1 atoms
  using lattice units in orthogonal box = (0 0 0) to (50.396842 50.396842 50.396842)
  create_atoms CPU = 0.000 seconds
Created 1 atoms
  using lattice units in orthogonal box = (0 0 0) to (50.396842 50.396842 50.396842)
  create_atoms CPU = 0.000 seconds
Created 1 atoms
  using lattice units in orthogonal box = (0 0 0) to (50.396842 50.396842 50.396842)
  create_atoms CPU = 0.000 seconds
Created 1 atoms
  using lattice units in orthogonal box = (0 0 0) to (50.396842 50.396842 50.396842)
  create_atoms CPU = 0.000 seconds
Created 1 atoms
  using lattice units in orthogonal box = (0 0 0) to (50.396842 50.396842 50.396842)
  create_atoms CPU = 0.000 seconds
Created 1 atoms
  using lattice units in orthogonal box = (0 0 0) to (50.396842 50.396842 50.396842)
  create_atoms CPU = 0.000 seconds
Created 1 atoms
  using lattice units in orthogonal box = (0 0 0) to (50.396842 50.396842 50.396842)
  create_atoms CPU = 0.000 seconds
Created 1 atoms
  using lattice units in orthogonal box = (0 0 0) to (50.396842 50.396842 50.396842)
  create_atoms CPU = 0.000 seconds
Created 1 atoms
  using lattice units in orthogonal box = (0 0 0) to (50.396842 50.396842 50.396842)
  create_atoms CPU = 0.000 seconds
Created 1 atoms
  using lattice units in orthogonal box = (0 0 0) to (50.396842 50.396842 50.396842)
  create_atoms CPU = 0.000 seconds
Created 1 atoms
  using lattice units in orthogonal box = (0 0 0) to (50.396842 50.396842 50.396842)
  create_atoms CPU = 0.000 seconds
Created 1 atoms
  using lattice units in orthogonal box = (0 0 0) to (50.396842 50.396842 50.396842)
  create_atoms CPU = 0.000 seconds
Created 1 atoms
  using lattice units in orthogonal box = (0 0 0) to (50.396842 50.396842 50.396842)
  create_atoms CPU = 0.000 seconds
Created 1 atoms
  using lattice units in orthogonal box = (0 0 0) to (50.396842 50.396842 50.396842)
  create_atoms CPU = 0.000 seconds
Created 1 atoms
  using lattice units in orthogonal box = (0 0 0) to (50.396842 50.396842 50.396842)
  create_atoms CPU = 0.000 seconds
Created 1 atoms
  using lattice units in orthogonal box = (0 0 0) to (50.396842 50.396842 50.396842)
  create_atoms CPU = 0.000 seconds
Created 1 atoms
  using lattice units in orthogonal box = (0 0 0) to (50.396842 50.396842 50.396842)
  create_atoms CPU = 0.001 seconds
Created 1 atoms
  using lattice units in orthogonal box = (0 0 0) to (50.396842 50.396842 50.396842)
  create_atoms CPU = 0.000 seconds
Created 1 atoms
  using lattice units in orthogonal box = (0 0 0) to (50.396842 50.396842 50.396842)
  create_atoms CPU = 0.000 seconds
Created 1 atoms
  using lattice units in orthogonal box = (0 0 0) to (50.396842 50.396842 50.396842)
  create_atoms CPU = 0.000 seconds
Created 1 atoms
  using lattice units in orthogonal box = (0 0 0) to (50.396842 50.396842 50.396842)
  create_atoms CPU = 0.000 seconds
Created 1 atoms
  using lattice units in orthogonal box = (0 0 0) to (50.396842 50.396842 50.396842)
  create_atoms CPU = 0.001 seconds
Created 1 atoms
  using lattice units in orthogonal box = (0 0 0) to (50.396842 50.396842 50.396842)
  create_atoms CPU = 0.000 seconds
Created 1 atoms
  using lattice units in orthogonal box = (0 0 0) to (50.396842 50.396842 50.396842)
  create_atoms CPU = 0.000 seconds
Created 1 atoms
  using lattice units in orthogonal box = (0 0 0) to (50.396842 50.396842 50.396842)
  create_atoms CPU = 0.000 seconds
Created 1 atoms
  using lattice units in orthogonal box = (0 0 0) to (50.396842 50.396842 50.396842)
  create_atoms CPU = 0.000 seconds
Created 1 atoms
  using lattice units in orthogonal box = (0 0 0) to (50.396842 50.396842 50.396842)
  create_atoms CPU = 0.000 seconds
Created 1 atoms
  using lattice units in orthogonal box = (0 0 0) to (50.396842 50.396842 50.396842)
  create_atoms CPU = 0.000 seconds
Created 1 atoms
  using lattice units in orthogonal box = (0 0 0) to (50.396842 50.396842 50.396842)
  create_atoms CPU = 0.000 seconds
Created 1 atoms
  using lattice units in orthogonal box = (0 0 0) to (50.396842 50.396842 50.396842)
  create_atoms CPU = 0.000 seconds
Created 1 atoms
  using lattice units in orthogonal box = (0 0 0) to (50.396842 50.396842 50.396842)
  create_atoms CPU = 0.000 seconds
Created 1 atoms
  using lattice units in orthogonal box = (0 0 0) to (50.396842 50.396842 50.396842)
  create_atoms CPU = 0.000 seconds
Created 1 atoms
  using lattice units in orthogonal box = (0 0 0) to (50.396842 50.396842 50.396842)
  create_atoms CPU = 0.000 seconds
Created 1 atoms
  using lattice units in orthogonal box = (0 0 0) to (50.396842 50.396842 50.396842)
  create_atoms CPU = 0.000 seconds
Created 1 atoms
  using lattice units in orthogonal box = (0 0 0) to (50.396842 50.396842 50.396842)
  create_atoms CPU = 0.000 seconds
Created 1 atoms
  using lattice units in orthogonal box = (0 0 0) to (50.396842 50.396842 50.396842)
  create_atoms CPU = 0.000 seconds
Created 1 atoms
  using lattice units in orthogonal box = (0 0 0) to (50.396842 50.396842 50.396842)
  create_atoms CPU = 0.000 seconds
Created 1 atoms
  using lattice units in orthogonal box = (0 0 0) to (50.396842 50.396842 50.396842)
  create_atoms CPU = 0.000 seconds
Created 1 atoms
  using lattice units in orthogonal box = (0 0 0) to (50.396842 50.396842 50.396842)
  create_atoms CPU = 0.000 seconds
Created 1 atoms
  using lattice units in orthogonal box = (0 0 0) to (50.396842 50.396842 50.396842)
  create_atoms CPU = 0.000 seconds
Created 1 atoms
  using lattice units in orthogonal box = (0 0 0) to (50.396842 50.396842 50.396842)
  create_atoms CPU = 0.000 seconds
Created 1 atoms
  using lattice units in orthogonal box = (0 0 0) to (50.396842 50.396842 50.396842)
  create_atoms CPU = 0.000 seconds
Created 1 atoms
  using lattice units in orthogonal box = (0 0 0) to (50.396842 50.396842 50.396842)
  create_atoms CPU = 0.000 seconds
Created 1 atoms
  using lattice units in orthogonal box = (0 0 0) to (50.396842 50.396842 50.396842)
  create_atoms CPU = 0.000 seconds
Created 1 atoms
  using lattice units in orthogonal box = (0 0 0) to (50.396842 50.396842 50.396842)
  create_atoms CPU = 0.000 seconds
Created 1 atoms
  using lattice units in orthogonal box = (0 0 0) to (50.396842 50.396842 50.396842)
  create_atoms CPU = 0.000 seconds
Created 1 atoms
  using lattice units in orthogonal box = (0 0 0) to (50.396842 50.396842 50.396842)
  create_atoms CPU = 0.000 seconds
Created 1 atoms
  using lattice units in orthogonal box = (0 0 0) to (50.396842 50.396842 50.396842)
  create_atoms CPU = 0.000 seconds
Created 1 atoms
  using lattice units in orthogonal box = (0 0 0) to (50.396842 50.396842 50.396842)
  create_atoms CPU = 0.000 seconds
Created 1 atoms
  using lattice units in orthogonal box = (0 0 0) to (50.396842 50.396842 50.396842)
  create_atoms CPU = 0.000 seconds
Created 1 atoms
  using lattice units in orthogonal box = (0 0 0) to (50.396842 50.396842 50.396842)
  create_atoms CPU = 0.000 seconds
Created 1 atoms
  using lattice units in orthogonal box = (0 0 0) to (50.396842 50.396842 50.396842)
  create_atoms CPU = 0.000 seconds
Created 1 atoms
  using lattice units in orthogonal box = (0 0 0) to (50.396842 50.396842 50.396842)
  create_atoms CPU = 0.000 seconds
Created 1 atoms
  using lattice units in orthogonal box = (0 0 0) to (50.396842 50.396842 50.396842)
  create_atoms CPU = 0.000 seconds
Created 1 atoms
  using lattice units in orthogonal box = (0 0 0) to (50.396842 50.396842 50.396842)
  create_atoms CPU = 0.000 seconds
Created 1 atoms
  using lattice units in orthogonal box = (0 0 0) to (50.396842 50.396842 50.396842)
  create_atoms CPU = 0.000 seconds
Created 1 atoms
  using lattice units in orthogonal box = (0 0 0) to (50.396842 50.396842 50.396842)
  create_atoms CPU = 0.000 seconds
Created 1 atoms
  using lattice units in orthogonal box = (0 0 0) to (50.396842 50.396842 50.396842)
  create_atoms CPU = 0.000 seconds
Created 1 atoms
  using lattice units in orthogonal box = (0 0 0) to (50.396842 50.396842 50.396842)
  create_atoms CPU = 0.000 seconds
Created 1 atoms
  using lattice units in orthogonal box = (0 0 0) to (50.396842 50.396842 50.396842)
  create_atoms CPU = 0.000 seconds
Created 1 atoms
  using lattice units in orthogonal box = (0 0 0) to (50.396842 50.396842 50.396842)
  create_atoms CPU = 0.000 seconds
Created 1 atoms
  using lattice units in orthogonal box = (0 0 0) to (50.396842 50.396842 50.396842)
  create_atoms CPU = 0.000 seconds
Created 1 atoms
  using lattice units in orthogonal box = (0 0 0) to (50.396842 50.396842 50.396842)
  create_atoms CPU = 0.000 seconds
Created 1 atoms
  using lattice units in orthogonal box = (0 0 0) to (50.396842 50.396842 50.396842)
  create_atoms CPU = 0.000 seconds
Created 1 atoms
  using lattice units in orthogonal box = (0 0 0) to (50.396842 50.396842 50.396842)
  create_atoms CPU = 0.000 seconds
Created 1 atoms
  using lattice units in orthogonal box = (0 0 0) to (50.396842 50.396842 50.396842)
  create_atoms CPU = 0.000 seconds
Created 1 atoms
  using lattice units in orthogonal box = (0 0 0) to (50.396842 50.396842 50.396842)
  create_atoms CPU = 0.000 seconds
Created 1 atoms
  using lattice units in orthogonal box = (0 0 0) to (50.396842 50.396842 50.396842)
  create_atoms CPU = 0.000 seconds
Created 1 atoms
  using lattice units in orthogonal box = (0 0 0) to (50.396842 50.396842 50.396842)
  create_atoms CPU = 0.000 seconds
Created 1 atoms
  using lattice units in orthogonal box = (0 0 0) to (50.396842 50.396842 50.396842)
  create_atoms CPU = 0.000 seconds
Created 1 atoms
  using lattice units in orthogonal box = (0 0 0) to (50.396842 50.396842 50.396842)
  create_atoms CPU = 0.000 seconds
Created 1 atoms
  using lattice units in orthogonal box = (0 0 0) to (50.396842 50.396842 50.396842)
  create_atoms CPU = 0.001 seconds
Created 1 atoms
  using lattice units in orthogonal box = (0 0 0) to (50.396842 50.396842 50.396842)
  create_atoms CPU = 0.000 seconds
Created 1 atoms
  using lattice units in orthogonal box = (0 0 0) to (50.396842 50.396842 50.396842)
  create_atoms CPU = 0.000 seconds
Created 1 atoms
  using lattice units in orthogonal box = (0 0 0) to (50.396842 50.396842 50.396842)
  create_atoms CPU = 0.000 seconds
Created 1 atoms
  using lattice units in orthogonal box = (0 0 0) to (50.396842 50.396842 50.396842)
  create_atoms CPU = 0.000 seconds
Created 1 atoms
  using lattice units in orthogonal box = (0 0 0) to (50.396842 50.396842 50.396842)
  create_atoms CPU = 0.000 seconds
Created 1 atoms
  using lattice units in orthogonal box = (0 0 0) to (50.396842 50.396842 50.396842)
  create_atoms CPU = 0.000 seconds
Created 1 atoms
  using lattice units in orthogonal box = (0 0 0) to (50.396842 50.396842 50.396842)
  create_atoms CPU = 0.000 seconds
Created 1 atoms
  using lattice units in orthogonal box = (0 0 0) to (50.396842 50.396842 50.396842)
  create_atoms CPU = 0.000 seconds
Created 1 atoms
  using lattice units in orthogonal box = (0 0 0) to (50.396842 50.396842 50.396842)
  create_atoms CPU = 0.000 seconds
Created 1 atoms
  using lattice units in orthogonal box = (0 0 0) to (50.396842 50.396842 50.396842)
  create_atoms CPU = 0.000 seconds
Created 1 atoms
  using lattice units in orthogonal box = (0 0 0) to (50.396842 50.396842 50.396842)
  create_atoms CPU = 0.000 seconds
Created 1 atoms
  using lattice units in orthogonal box = (0 0 0) to (50.396842 50.396842 50.396842)
  create_atoms CPU = 0.000 seconds
Created 1 atoms
  using lattice units in orthogonal box = (0 0 0) to (50.396842 50.396842 50.396842)
  create_atoms CPU = 0.000 seconds
Created 1 atoms
  using lattice units in orthogonal box = (0 0 0) to (50.396842 50.396842 50.396842)
  create_atoms CPU = 0.000 seconds
Created 1 atoms
  using lattice units in orthogonal box = (0 0 0) to (50.396842 50.396842 50.396842)
  create_atoms CPU = 0.000 seconds
Created 1 atoms
  using lattice units in orthogonal box = (0 0 0) to (50.396842 50.396842 50.396842)
  create_atoms CPU = 0.000 seconds
Created 1 atoms
  using lattice units in orthogonal box = (0 0 0) to (50.396842 50.396842 50.396842)
  create_atoms CPU = 0.000 seconds
Created 1 atoms
  using lattice units in orthogonal box = (0 0 0) to (50.396842 50.396842 50.396842)
  create_atoms CPU = 0.000 seconds
Created 1 atoms
  using lattice units in orthogonal box = (0 0 0) to (50.396842 50.396842 50.396842)
  create_atoms CPU = 0.000 seconds
Created 1 atoms
  using lattice units in orthogonal box = (0 0 0) to (50.396842 50.396842 50.396842)
  create_atoms CPU = 0.000 seconds
Created 1 atoms
  using lattice units in orthogonal box = (0 0 0) to (50.396842 50.396842 50.396842)
  create_atoms CPU = 0.000 seconds
Created 1 atoms
  using lattice units in orthogonal box = (0 0 0) to (50.396842 50.396842 50.396842)
  create_atoms CPU = 0.000 seconds
Created 1 atoms
  using lattice units in orthogonal box = (0 0 0) to (50.396842 50.396842 50.396842)
  create_atoms CPU = 0.000 seconds
Created 1 atoms
  using lattice units in orthogonal box = (0 0 0) to (50.396842 50.396842 50.396842)
  create_atoms CPU = 0.000 seconds
Created 1 atoms
  using lattice units in orthogonal box = (0 0 0) to (50.396842 50.396842 50.396842)
  create_atoms CPU = 0.000 seconds
Created 1 atoms
  using lattice units in orthogonal box = (0 0 0) to (50.396842 50.396842 50.396842)
  create_atoms CPU = 0.000 seconds
Created 1 atoms
  using lattice units in orthogonal box = (0 0 0) to (50.396842 50.396842 50.396842)
  create_atoms CPU = 0.000 seconds
Created 1 atoms
  using lattice units in orthogonal box = (0 0 0) to (50.396842 50.396842 50.396842)
  create_atoms CPU = 0.000 seconds
Created 1 atoms
  using lattice units in orthogonal box = (0 0 0) to (50.396842 50.396842 50.396842)
  create_atoms CPU = 0.000 seconds
Created 1 atoms
  using lattice units in orthogonal box = (0 0 0) to (50.396842 50.396842 50.396842)
  create_atoms CPU = 0.000 seconds
Created 1 atoms
  using lattice units in orthogonal box = (0 0 0) to (50.396842 50.396842 50.396842)
  create_atoms CPU = 0.000 seconds
Created 1 atoms
  using lattice units in orthogonal box = (0 0 0) to (50.396842 50.396842 50.396842)
  create_atoms CPU = 0.000 seconds
Created 1 atoms
  using lattice units in orthogonal box = (0 0 0) to (50.396842 50.396842 50.396842)
  create_atoms CPU = 0.000 seconds
Created 1 atoms
  using lattice units in orthogonal box = (0 0 0) to (50.396842 50.396842 50.396842)
  create_atoms CPU = 0.000 seconds
Created 1 atoms
  using lattice units in orthogonal box = (0 0 0) to (50.396842 50.396842 50.396842)
  create_atoms CPU = 0.000 seconds
Created 1 atoms
  using lattice units in orthogonal box = (0 0 0) to (50.396842 50.396842 50.396842)
  create_atoms CPU = 0.000 seconds
Created 1 atoms
  using lattice units in orthogonal box = (0 0 0) to (50.396842 50.396842 50.396842)
  create_atoms CPU = 0.000 seconds
Created 1 atoms
  using lattice units in orthogonal box = (0 0 0) to (50.396842 50.396842 50.396842)
  create_atoms CPU = 0.000 seconds
Created 1 atoms
  using lattice units in orthogonal box = (0 0 0) to (50.396842 50.396842 50.396842)
  create_atoms CPU = 0.001 seconds
Created 1 atoms
  using lattice units in orthogonal box = (0 0 0) to (50.396842 50.396842 50.396842)
  create_atoms CPU = 0.000 seconds
Created 1 atoms
  using lattice units in orthogonal box = (0 0 0) to (50.396842 50.396842 50.396842)
  create_atoms CPU = 0.000 seconds
Created 1 atoms
  using lattice units in orthogonal box = (0 0 0) to (50.396842 50.396842 50.396842)
  create_atoms CPU = 0.000 seconds
Created 1 atoms
  using lattice units in orthogonal box = (0 0 0) to (50.396842 50.396842 50.396842)
  create_atoms CPU = 0.000 seconds
Created 1 atoms
  using lattice units in orthogonal box = (0 0 0) to (50.396842 50.396842 50.396842)
  create_atoms CPU = 0.000 seconds
Created 1 atoms
  using lattice units in orthogonal box = (0 0 0) to (50.396842 50.396842 50.396842)
  create_atoms CPU = 0.000 seconds
Created 1 atoms
  using lattice units in orthogonal box = (0 0 0) to (50.396842 50.396842 50.396842)
  create_atoms CPU = 0.000 seconds
Created 1 atoms
  using lattice units in orthogonal box = (0 0 0) to (50.396842 50.396842 50.396842)
  create_atoms CPU = 0.000 seconds
Created 1 atoms
  using lattice units in orthogonal box = (0 0 0) to (50.396842 50.396842 50.396842)
  create_atoms CPU = 0.000 seconds
Created 1 atoms
  using lattice units in orthogonal box = (0 0 0) to (50.396842 50.396842 50.396842)
  create_atoms CPU = 0.000 seconds
Created 1 atoms
  using lattice units in orthogonal box = (0 0 0) to (50.396842 50.396842 50.396842)
  create_atoms CPU = 0.000 seconds
Created 1 atoms
  using lattice units in orthogonal box = (0 0 0) to (50.396842 50.396842 50.396842)
  create_atoms CPU = 0.000 seconds
Created 1 atoms
  using lattice units in orthogonal box = (0 0 0) to (50.396842 50.396842 50.396842)
  create_atoms CPU = 0.000 seconds
Created 1 atoms
  using lattice units in orthogonal box = (0 0 0) to (50.396842 50.396842 50.396842)
  create_atoms CPU = 0.000 seconds
Created 1 atoms
  using lattice units in orthogonal box = (0 0 0) to (50.396842 50.396842 50.396842)
  create_atoms CPU = 0.000 seconds
Created 1 atoms
  using lattice units in orthogonal box = (0 0 0) to (50.396842 50.396842 50.396842)
  create_atoms CPU = 0.000 seconds
Created 1 atoms
  using lattice units in orthogonal box = (0 0 0) to (50.396842 50.396842 50.396842)
  create_atoms CPU = 0.000 seconds
Created 1 atoms
  using lattice units in orthogonal box = (0 0 0) to (50.396842 50.396842 50.396842)
  create_atoms CPU = 0.000 seconds
Created 1 atoms
  using lattice units in orthogonal box = (0 0 0) to (50.396842 50.396842 50.396842)
  create_atoms CPU = 0.000 seconds
Created 1 atoms
  using lattice units in orthogonal box = (0 0 0) to (50.396842 50.396842 50.396842)
  create_atoms CPU = 0.000 seconds
Created 1 atoms
  using lattice units in orthogonal box = (0 0 0) to (50.396842 50.396842 50.396842)
  create_atoms CPU = 0.000 seconds
Created 1 atoms
  using lattice units in orthogonal box = (0 0 0) to (50.396842 50.396842 50.396842)
  create_atoms CPU = 0.000 seconds
Created 0 atoms
  using lattice units in orthogonal box = (0 0 0) to (50.396842 50.396842 50.396842)
  create_atoms CPU = 0.000 seconds
Created 0 atoms
  using lattice units in orthogonal box = (0 0 0) to (50.396842 50.396842 50.396842)
  create_atoms CPU = 0.000 seconds
Created 0 atoms
  using lattice units in orthogonal box = (0 0 0) to (50.396842 50.396842 50.396842)
  create_atoms CPU = 0.000 seconds
Created 0 atoms
  using lattice units in orthogonal box = (0 0 0) to (50.396842 50.396842 50.396842)
  create_atoms CPU = 0.000 seconds
Created 0 atoms
  using lattice units in orthogonal box = (0 0 0) to (50.396842 50.396842 50.396842)
  create_atoms CPU = 0.000 seconds
Created 0 atoms
  using lattice units in orthogonal box = (0 0 0) to (50.396842 50.396842 50.396842)
  create_atoms CPU = 0.000 seconds
Created 0 atoms
  using lattice units in orthogonal box = (0 0 0) to (50.396842 50.396842 50.396842)
  create_atoms CPU = 0.000 seconds
Created 0 atoms
  using lattice units in orthogonal box = (0 0 0) to (50.396842 50.396842 50.396842)
  create_atoms CPU = 0.000 seconds
Created 0 atoms
  using lattice units in orthogonal box = (0 0 0) to (50.396842 50.396842 50.396842)
  create_atoms CPU = 0.000 seconds
Created 0 atoms
  using lattice units in orthogonal box = (0 0 0) to (50.396842 50.396842 50.396842)
  create_atoms CPU = 0.000 seconds
Created 0 atoms
  using lattice units in orthogonal box = (0 0 0) to (50.396842 50.396842 50.396842)
  create_atoms CPU = 0.000 seconds
Created 0 atoms
  using lattice units in orthogonal box = (0 0 0) to (50.396842 50.396842 50.396842)
  create_atoms CPU = 0.000 seconds
Created 0 atoms
  using lattice units in orthogonal box = (0 0 0) to (50.396842 50.396842 50.396842)
  create_atoms CPU = 0.000 seconds
Created 0 atoms
  using lattice units in orthogonal box = (0 0 0) to (50.396842 50.396842 50.396842)
  create_atoms CPU = 0.000 seconds
Created 0 atoms
  using lattice units in orthogonal box = (0 0 0) to (50.396842 50.396842 50.396842)
  create_atoms CPU = 0.000 seconds
Created 0 atoms
  using lattice units in orthogonal box = (0 0 0) to (50.396842 50.396842 50.396842)
  create_atoms CPU = 0.000 seconds
Created 0 atoms
  using lattice units in orthogonal box = (0 0 0) to (50.396842 50.396842 50.396842)
  create_atoms CPU = 0.000 seconds
Created 0 atoms
  using lattice units in orthogonal box = (0 0 0) to (50.396842 50.396842 50.396842)
  create_atoms CPU = 0.000 seconds
Created 0 atoms
  using lattice units in orthogonal box = (0 0 0) to (50.396842 50.396842 50.396842)
  create_atoms CPU = 0.000 seconds
Created 0 atoms
  using lattice units in orthogonal box = (0 0 0) to (50.396842 50.396842 50.396842)
  create_atoms CPU = 0.000 seconds
Created 0 atoms
  using lattice units in orthogonal box = (0 0 0) to (50.396842 50.396842 50.396842)
  create_atoms CPU = 0.001 seconds
Created 0 atoms
  using lattice units in orthogonal box = (0 0 0) to (50.396842 50.396842 50.396842)
  create_atoms CPU = 0.000 seconds
Created 0 atoms
  using lattice units in orthogonal box = (0 0 0) to (50.396842 50.396842 50.396842)
  create_atoms CPU = 0.000 seconds
Created 0 atoms
  using lattice units in orthogonal box = (0 0 0) to (50.396842 50.396842 50.396842)
  create_atoms CPU = 0.000 seconds
Created 0 atoms
  using lattice units in orthogonal box = (0 0 0) to (50.396842 50.396842 50.396842)
  create_atoms CPU = 0.000 seconds
Created 0 atoms
  using lattice units in orthogonal box = (0 0 0) to (50.396842 50.396842 50.396842)
  create_atoms CPU = 0.000 seconds
Created 0 atoms
  using lattice units in orthogonal box = (0 0 0) to (50.396842 50.396842 50.396842)
  create_atoms CPU = 0.000 seconds
Created 0 atoms
  using lattice units in orthogonal box = (0 0 0) to (50.396842 50.396842 50.396842)
  create_atoms CPU = 0.000 seconds
Created 0 atoms
  using lattice units in orthogonal box = (0 0 0) to (50.396842 50.396842 50.396842)
  create_atoms CPU = 0.000 seconds
Created 0 atoms
  using lattice units in orthogonal box = (0 0 0) to (50.396842 50.396842 50.396842)
  create_atoms CPU = 0.000 seconds
Created 0 atoms
  using lattice units in orthogonal box = (0 0 0) to (50.396842 50.396842 50.396842)
  create_atoms CPU = 0.000 seconds
Created 0 atoms
  using lattice units in orthogonal box = (0 0 0) to (50.396842 50.396842 50.396842)
  create_atoms CPU = 0.000 seconds
Created 0 atoms
  using lattice units in orthogonal box = (0 0 0) to (50.396842 50.396842 50.396842)
  create_atoms CPU = 0.000 seconds
Created 0 atoms
  using lattice units in orthogonal box = (0 0 0) to (50.396842 50.396842 50.396842)
  create_atoms CPU = 0.000 seconds
Created 0 atoms
  using lattice units in orthogonal box = (0 0 0) to (50.396842 50.396842 50.396842)
  create_atoms CPU = 0.000 seconds
Created 0 atoms
  using lattice units in orthogonal box = (0 0 0) to (50.396842 50.396842 50.396842)
  create_atoms CPU = 0.000 seconds
Created 0 atoms
  using lattice units in orthogonal box = (0 0 0) to (50.396842 50.396842 50.396842)
  create_atoms CPU = 0.000 seconds
Created 0 atoms
  using lattice units in orthogonal box = (0 0 0) to (50.396842 50.396842 50.396842)
  create_atoms CPU = 0.000 seconds
Created 0 atoms
  using lattice units in orthogonal box = (0 0 0) to (50.396842 50.396842 50.396842)
  create_atoms CPU = 0.000 seconds
Created 0 atoms
  using lattice units in orthogonal box = (0 0 0) to (50.396842 50.396842 50.396842)
  create_atoms CPU = 0.000 seconds
Created 0 atoms
  using lattice units in orthogonal box = (0 0 0) to (50.396842 50.396842 50.396842)
  create_atoms CPU = 0.000 seconds
Created 0 atoms
  using lattice units in orthogonal box = (0 0 0) to (50.396842 50.396842 50.396842)
  create_atoms CPU = 0.000 seconds
Created 0 atoms
  using lattice units in orthogonal box = (0 0 0) to (50.396842 50.396842 50.396842)
  create_atoms CPU = 0.000 seconds
Created 0 atoms
  using lattice units in orthogonal box = (0 0 0) to (50.396842 50.396842 50.396842)
  create_atoms CPU = 0.000 seconds
Created 0 atoms
  using lattice units in orthogonal box = (0 0 0) to (50.396842 50.396842 50.396842)
  create_atoms CPU = 0.000 seconds
Created 0 atoms
  using lattice units in orthogonal box = (0 0 0) to (50.396842 50.396842 50.396842)
  create_atoms CPU = 0.000 seconds
Created 0 atoms
  using lattice units in orthogonal box = (0 0 0) to (50.396842 50.396842 50.396842)
  create_atoms CPU = 0.000 seconds
Created 0 atoms
  using lattice units in orthogonal box = (0 0 0) to (50.396842 50.396842 50.396842)
  create_atoms CPU = 0.000 seconds
Created 0 atoms
  using lattice units in orthogonal box = (0 0 0) to (50.396842 50.396842 50.396842)
  create_atoms CPU = 0.000 seconds
Created 0 atoms
  using lattice units in orthogonal box = (0 0 0) to (50.396842 50.396842 50.396842)
  create_atoms CPU = 0.000 seconds
Created 0 atoms
  using lattice units in orthogonal box = (0 0 0) to (50.396842 50.396842 50.396842)
  create_atoms CPU = 0.000 seconds
Created 0 atoms
  using lattice units in orthogonal box = (0 0 0) to (50.396842 50.396842 50.396842)
  create_atoms CPU = 0.000 seconds
Created 0 atoms
  using lattice units in orthogonal box = (0 0 0) to (50.396842 50.396842 50.396842)
  create_atoms CPU = 0.000 seconds
Created 0 atoms
  using lattice units in orthogonal box = (0 0 0) to (50.396842 50.396842 50.396842)
  create_atoms CPU = 0.000 seconds
Created 0 atoms
  using lattice units in orthogonal box = (0 0 0) to (50.396842 50.396842 50.396842)
  create_atoms CPU = 0.000 seconds
Created 0 atoms
  using lattice units in orthogonal box = (0 0 0) to (50.396842 50.396842 50.396842)
  create_atoms CPU = 0.000 seconds
Created 0 atoms
  using lattice units in orthogonal box = (0 0 0) to (50.396842 50.396842 50.396842)
  create_atoms CPU = 0.000 seconds
Created 0 atoms
  using lattice units in orthogonal box = (0 0 0) to (50.396842 50.396842 50.396842)
  create_atoms CPU = 0.000 seconds
Created 0 atoms
  using lattice units in orthogonal box = (0 0 0) to (50.396842 50.396842 50.396842)
  create_atoms CPU = 0.000 seconds
Created 0 atoms
  using lattice units in orthogonal box = (0 0 0) to (50.396842 50.396842 50.396842)
  create_atoms CPU = 0.000 seconds
Created 0 atoms
  using lattice units in orthogonal box = (0 0 0) to (50.396842 50.396842 50.396842)
  create_atoms CPU = 0.000 seconds
Created 0 atoms
  using lattice units in orthogonal box = (0 0 0) to (50.396842 50.396842 50.396842)
  create_atoms CPU = 0.000 seconds
Created 0 atoms
  using lattice units in orthogonal box = (0 0 0) to (50.396842 50.396842 50.396842)
  create_atoms CPU = 0.000 seconds
Created 0 atoms
  using lattice units in orthogonal box = (0 0 0) to (50.396842 50.396842 50.396842)
  create_atoms CPU = 0.000 seconds
Created 0 atoms
  using lattice units in orthogonal box = (0 0 0) to (50.396842 50.396842 50.396842)
  create_atoms CPU = 0.000 seconds
Created 0 atoms
  using lattice units in orthogonal box = (0 0 0) to (50.396842 50.396842 50.396842)
  create_atoms CPU = 0.000 seconds
Created 0 atoms
  using lattice units in orthogonal box = (0 0 0) to (50.396842 50.396842 50.396842)
  create_atoms CPU = 0.000 seconds
Created 0 atoms
  using lattice units in orthogonal box = (0 0 0) to (50.396842 50.396842 50.396842)
  create_atoms CPU = 0.001 seconds
Created 0 atoms
  using lattice units in orthogonal box = (0 0 0) to (50.396842 50.396842 50.396842)
  create_atoms CPU = 0.000 seconds
Created 0 atoms
  using lattice units in orthogonal box = (0 0 0) to (50.396842 50.396842 50.396842)
  create_atoms CPU = 0.000 seconds
Created 0 atoms
  using lattice units in orthogonal box = (0 0 0) to (50.396842 50.396842 50.396842)
  create_atoms CPU = 0.000 seconds
Created 0 atoms
  using lattice units in orthogonal box = (0 0 0) to (50.396842 50.396842 50.396842)
  create_atoms CPU = 0.000 seconds
Created 0 atoms
  using lattice units in orthogonal box = (0 0 0) to (50.396842 50.396842 50.396842)
  create_atoms CPU = 0.000 seconds
Created 0 atoms
  using lattice units in orthogonal box = (0 0 0) to (50.396842 50.396842 50.396842)
  create_atoms CPU = 0.000 seconds
Created 0 atoms
  using lattice units in orthogonal box = (0 0 0) to (50.396842 50.396842 50.396842)
  create_atoms CPU = 0.000 seconds
Created 0 atoms
  using lattice units in orthogonal box = (0 0 0) to (50.396842 50.396842 50.396842)
  create_atoms CPU = 0.000 seconds
Created 0 atoms
  using lattice units in orthogonal box = (0 0 0) to (50.396842 50.396842 50.396842)
  create_atoms CPU = 0.000 seconds
Created 0 atoms
  using lattice units in orthogonal box = (0 0 0) to (50.396842 50.396842 50.396842)
  create_atoms CPU = 0.000 seconds
Created 0 atoms
  using lattice units in orthogonal box = (0 0 0) to (50.396842 50.396842 50.396842)
  create_atoms CPU = 0.000 seconds
Created 0 atoms
  using lattice units in orthogonal box = (0 0 0) to (50.396842 50.396842 50.396842)
  create_atoms CPU = 0.000 seconds
Created 0 atoms
  using lattice units in orthogonal box = (0 0 0) to (50.396842 50.396842 50.396842)
  create_atoms CPU = 0.000 seconds
Created 0 atoms
  using lattice units in orthogonal box = (0 0 0) to (50.396842 50.396842 50.396842)
  create_atoms CPU = 0.000 seconds
Created 0 atoms
  using lattice units in orthogonal box = (0 0 0) to (50.396842 50.396842 50.396842)
  create_atoms CPU = 0.000 seconds
Created 0 atoms
  using lattice units in orthogonal box = (0 0 0) to (50.396842 50.396842 50.396842)
  create_atoms CPU = 0.000 seconds
Created 0 atoms
  using lattice units in orthogonal box = (0 0 0) to (50.396842 50.396842 50.396842)
  create_atoms CPU = 0.000 seconds
Created 0 atoms
  using lattice units in orthogonal box = (0 0 0) to (50.396842 50.396842 50.396842)
  create_atoms CPU = 0.000 seconds
Created 0 atoms
  using lattice units in orthogonal box = (0 0 0) to (50.396842 50.396842 50.396842)
  create_atoms CPU = 0.000 seconds
Created 0 atoms
  using lattice units in orthogonal box = (0 0 0) to (50.396842 50.396842 50.396842)
  create_atoms CPU = 0.000 seconds
Created 0 atoms
  using lattice units in orthogonal box = (0 0 0) to (50.396842 50.396842 50.396842)
  create_atoms CPU = 0.000 seconds
Created 0 atoms
  using lattice units in orthogonal box = (0 0 0) to (50.396842 50.396842 50.396842)
  create_atoms CPU = 0.000 seconds
Created 0 atoms
  using lattice units in orthogonal box = (0 0 0) to (50.396842 50.396842 50.396842)
  create_atoms CPU = 0.000 seconds
Created 0 atoms
  using lattice units in orthogonal box = (0 0 0) to (50.396842 50.396842 50.396842)
  create_atoms CPU = 0.000 seconds
Created 0 atoms
  using lattice units in orthogonal box = (0 0 0) to (50.396842 50.396842 50.396842)
  create_atoms CPU = 0.000 seconds
Created 0 atoms
  using lattice units in orthogonal box = (0 0 0) to (50.396842 50.396842 50.396842)
  create_atoms CPU = 0.000 seconds
Created 0 atoms
  using lattice units in orthogonal box = (0 0 0) to (50.396842 50.396842 50.396842)
  create_atoms CPU = 0.000 seconds
Created 0 atoms
  using lattice units in orthogonal box = (0 0 0) to (50.396842 50.396842 50.396842)
  create_atoms CPU = 0.000 seconds
Created 0 atoms
  using lattice units in orthogonal box = (0 0 0) to (50.396842 50.396842 50.396842)
  create_atoms CPU = 0.000 seconds
Created 0 atoms
  using lattice units in orthogonal box = (0 0 0) to (50.396842 50.396842 50.396842)
  create_atoms CPU = 0.000 seconds
Created 0 atoms
  using lattice units in orthogonal box = (0 0 0) to (50.396842 50.396842 50.396842)
  create_atoms CPU = 0.000 seconds
Created 0 atoms
  using lattice units in orthogonal box = (0 0 0) to (50.396842 50.396842 50.396842)
  create_atoms CPU = 0.000 seconds
Created 0 atoms
  using lattice units in orthogonal box = (0 0 0) to (50.396842 50.396842 50.396842)
  create_atoms CPU = 0.000 seconds
Created 0 atoms
  using lattice units in orthogonal box = (0 0 0) to (50.396842 50.396842 50.396842)
  create_atoms CPU = 0.000 seconds
Created 0 atoms
  using lattice units in orthogonal box = (0 0 0) to (50.396842 50.396842 50.396842)
  create_atoms CPU = 0.000 seconds
Created 0 atoms
  using lattice units in orthogonal box = (0 0 0) to (50.396842 50.396842 50.396842)
  create_atoms CPU = 0.000 seconds
Created 0 atoms
  using lattice units in orthogonal box = (0 0 0) to (50.396842 50.396842 50.396842)
  create_atoms CPU = 0.000 seconds
Created 0 atoms
  using lattice units in orthogonal box = (0 0 0) to (50.396842 50.396842 50.396842)
  create_atoms CPU = 0.000 seconds
Created 0 atoms
  using lattice units in orthogonal box = (0 0 0) to (50.396842 50.396842 50.396842)
  create_atoms CPU = 0.000 seconds
Created 0 atoms
  using lattice units in orthogonal box = (0 0 0) to (50.396842 50.396842 50.396842)
  create_atoms CPU = 0.000 seconds
Created 0 atoms
  using lattice units in orthogonal box = (0 0 0) to (50.396842 50.396842 50.396842)
  create_atoms CPU = 0.000 seconds
Created 0 atoms
  using lattice units in orthogonal box = (0 0 0) to (50.396842 50.396842 50.396842)
  create_atoms CPU = 0.000 seconds
Created 0 atoms
  using lattice units in orthogonal box = (0 0 0) to (50.396842 50.396842 50.396842)
  create_atoms CPU = 0.000 seconds
Created 0 atoms
  using lattice units in orthogonal box = (0 0 0) to (50.396842 50.396842 50.396842)
  create_atoms CPU = 0.000 seconds
Created 0 atoms
  using lattice units in orthogonal box = (0 0 0) to (50.396842 50.396842 50.396842)
  create_atoms CPU = 0.000 seconds
Created 0 atoms
  using lattice units in orthogonal box = (0 0 0) to (50.396842 50.396842 50.396842)
  create_atoms CPU = 0.000 seconds
Created 0 atoms
[...]
  using lattice units in orthogonal box = (0 0 0) to (50.396842 50.396842 50.396842)
  create_atoms CPU = 0.000 seconds
Created 0 atoms
  using lattice units in orthogonal box = (0 0 0) to (50.396842 50.396842 50.396842)
  create_atoms CPU = 0.000 seconds
Created 0 atoms
  using lattice units in orthogonal box = (0 0 0) to (50.396842 50.396842 50.396842)
  create_atoms CPU = 0.000 seconds
Created 0 atoms
  using lattice units in orthogonal box = (0 0 0) to (50.396842 50.396842 50.396842)
  create_atoms CPU = 0.000 seconds
Created 0 atoms
  using lattice units in orthogonal box = (0 0 0) to (50.396842 50.396842 50.396842)
  create_atoms CPU = 0.000 seconds
Created 0 atoms
  using lattice units in orthogonal box = (0 0 0) to (50.396842 50.396842 50.396842)
  create_atoms CPU = 0.000 seconds
Created 0 atoms
  using lattice units in orthogonal box = (0 0 0) to (50.396842 50.396842 50.396842)
  create_atoms CPU = 0.000 seconds
Created 0 atoms
  using lattice units in orthogonal box = (0 0 0) to (50.396842 50.396842 50.396842)
  create_atoms CPU = 0.000 seconds
Created 0 atoms
  using lattice units in orthogonal box = (0 0 0) to (50.396842 50.396842 50.396842)
  create_atoms CPU = 0.000 seconds
Created 0 atoms
  using lattice units in orthogonal box = (0 0 0) to (50.396842 50.396842 50.396842)
  create_atoms CPU = 0.000 seconds
Created 0 atoms
  using lattice units in orthogonal box = (0 0 0) to (50.396842 50.396842 50.396842)
  create_atoms CPU = 0.000 seconds
Created 0 atoms
  using lattice units in orthogonal box = (0 0 0) to (50.396842 50.396842 50.396842)
  create_atoms CPU = 0.000 seconds
Created 0 atoms
  using lattice units in orthogonal box = (0 0 0) to (50.396842 50.396842 50.396842)
  create_atoms CPU = 0.000 seconds
Created 0 atoms
  using lattice units in orthogonal box = (0 0 0) to (50.396842 50.396842 50.396842)
  create_atoms CPU = 0.000 seconds
Created 0 atoms
  using lattice units in orthogonal box = (0 0 0) to (50.396842 50.396842 50.396842)
  create_atoms CPU = 0.000 seconds
Created 0 atoms
  using lattice units in orthogonal box = (0 0 0) to (50.396842 50.396842 50.396842)
  create_atoms CPU = 0.000 seconds
Created 0 atoms
  using lattice units in orthogonal box = (0 0 0) to (50.396842 50.396842 50.396842)
  create_atoms CPU = 0.000 seconds
Created 0 atoms
  using lattice units in orthogonal box = (0 0 0) to (50.396842 50.396842 50.396842)
  create_atoms CPU = 0.000 seconds
Created 0 atoms
  using lattice units in orthogonal box = (0 0 0) to (50.396842 50.396842 50.396842)
  create_atoms CPU = 0.000 seconds
Created 0 atoms
  using lattice units in orthogonal box = (0 0 0) to (50.396842 50.396842 50.396842)
  create_atoms CPU = 0.000 seconds
Created 0 atoms
  using lattice units in orthogonal box = (0 0 0) to (50.396842 50.396842 50.396842)
  create_atoms CPU = 0.000 seconds
Created 0 atoms
  using lattice units in orthogonal box = (0 0 0) to (50.396842 50.396842 50.396842)
  create_atoms CPU = 0.000 seconds
Created 0 atoms
  using lattice units in orthogonal box = (0 0 0) to (50.396842 50.396842 50.396842)
  create_atoms CPU = 0.000 seconds
Created 0 atoms
  using lattice units in orthogonal box = (0 0 0) to (50.396842 50.396842 50.396842)
  create_atoms CPU = 0.000 seconds
Created 0 atoms
  using lattice units in orthogonal box = (0 0 0) to (50.396842 50.396842 50.396842)
  create_atoms CPU = 0.000 seconds
Created 0 atoms
  using lattice units in orthogonal box = (0 0 0) to (50.396842 50.396842 50.396842)
  create_atoms CPU = 0.000 seconds
Created 0 atoms
  using lattice units in orthogonal box = (0 0 0) to (50.396842 50.396842 50.396842)
  create_atoms CPU = 0.000 seconds
Created 0 atoms
  using lattice units in orthogonal box = (0 0 0) to (50.396842 50.396842 50.396842)
  create_atoms CPU = 0.000 seconds
Created 0 atoms
  using lattice units in orthogonal box = (0 0 0) to (50.396842 50.396842 50.396842)
  create_atoms CPU = 0.000 seconds
Created 0 atoms
  using lattice units in orthogonal box = (0 0 0) to (50.396842 50.396842 50.396842)
  create_atoms CPU = 0.000 seconds
Created 0 atoms
  using lattice units in orthogonal box = (0 0 0) to (50.396842 50.396842 50.396842)
  create_atoms CPU = 0.000 seconds
Created 0 atoms
  using lattice units in orthogonal box = (0 0 0) to (50.396842 50.396842 50.396842)
  create_atoms CPU = 0.000 seconds
Created 0 atoms
  using lattice units in orthogonal box = (0 0 0) to (50.396842 50.396842 50.396842)
  create_atoms CPU = 0.000 seconds
Created 0 atoms
  using lattice units in orthogonal box = (0 0 0) to (50.396842 50.396842 50.396842)
  create_atoms CPU = 0.001 seconds
Created 0 atoms
  using lattice units in orthogonal box = (0 0 0) to (50.396842 50.396842 50.396842)
  create_atoms CPU = 0.000 seconds
Created 0 atoms
  using lattice units in orthogonal box = (0 0 0) to (50.396842 50.396842 50.396842)
  create_atoms CPU = 0.000 seconds
Created 0 atoms
  using lattice units in orthogonal box = (0 0 0) to (50.396842 50.396842 50.396842)
  create_atoms CPU = 0.000 seconds
Created 0 atoms
  using lattice units in orthogonal box = (0 0 0) to (50.396842 50.396842 50.396842)
  create_atoms CPU = 0.000 seconds
Created 0 atoms
  using lattice units in orthogonal box = (0 0 0) to (50.396842 50.396842 50.396842)
  create_atoms CPU = 0.000 seconds
Created 0 atoms
  using lattice units in orthogonal box = (0 0 0) to (50.396842 50.396842 50.396842)
  create_atoms CPU = 0.000 seconds
Created 0 atoms
  using lattice units in orthogonal box = (0 0 0) to (50.396842 50.396842 50.396842)
  create_atoms CPU = 0.000 seconds
Created 0 atoms
  using lattice units in orthogonal box = (0 0 0) to (50.396842 50.396842 50.396842)
  create_atoms CPU = 0.000 seconds
Created 0 atoms
  using lattice units in orthogonal box = (0 0 0) to (50.396842 50.396842 50.396842)
  create_atoms CPU = 0.000 seconds
Created 0 atoms
  using lattice units in orthogonal box = (0 0 0) to (50.396842 50.396842 50.396842)
  create_atoms CPU = 0.000 seconds
Created 0 atoms
  using lattice units in orthogonal box = (0 0 0) to (50.396842 50.396842 50.396842)
  create_atoms CPU = 0.000 seconds
Created 0 atoms
  using lattice units in orthogonal box = (0 0 0) to (50.396842 50.396842 50.396842)
  create_atoms CPU = 0.000 seconds
Created 0 atoms
  using lattice units in orthogonal box = (0 0 0) to (50.396842 50.396842 50.396842)
  create_atoms CPU = 0.000 seconds
Created 0 atoms
  using lattice units in orthogonal box = (0 0 0) to (50.396842 50.396842 50.396842)
  create_atoms CPU = 0.000 seconds
Created 0 atoms
  using lattice units in orthogonal box = (0 0 0) to (50.396842 50.396842 50.396842)
  create_atoms CPU = 0.000 seconds
Created 0 atoms
  using lattice units in orthogonal box = (0 0 0) to (50.396842 50.396842 50.396842)
  create_atoms CPU = 0.000 seconds
Created 0 atoms
  using lattice units in orthogonal box = (0 0 0) to (50.396842 50.396842 50.396842)
  create_atoms CPU = 0.000 seconds
Created 0 atoms
  using lattice units in orthogonal box = (0 0 0) to (50.396842 50.396842 50.396842)
  create_atoms CPU = 0.000 seconds
Created 0 atoms
  using lattice units in orthogonal box = (0 0 0) to (50.396842 50.396842 50.396842)
  create_atoms CPU = 0.000 seconds
Created 0 atoms
  using lattice units in orthogonal box = (0 0 0) to (50.396842 50.396842 50.396842)
  create_atoms CPU = 0.000 seconds
Created 0 atoms
  using lattice units in orthogonal box = (0 0 0) to (50.396842 50.396842 50.396842)
  create_atoms CPU = 0.000 seconds
Created 0 atoms
  using lattice units in orthogonal box = (0 0 0) to (50.396842 50.396842 50.396842)
  create_atoms CPU = 0.000 seconds
Created 0 atoms
  using lattice units in orthogonal box = (0 0 0) to (50.396842 50.396842 50.396842)
  create_atoms CPU = 0.000 seconds
Created 0 atoms
  using lattice units in orthogonal box = (0 0 0) to (50.396842 50.396842 50.396842)
  create_atoms CPU = 0.000 seconds
Created 0 atoms
  using lattice units in orthogonal box = (0 0 0) to (50.396842 50.396842 50.396842)
  create_atoms CPU = 0.000 seconds
Created 0 atoms
  using lattice units in orthogonal box = (0 0 0) to (50.396842 50.396842 50.396842)
  create_atoms CPU = 0.000 seconds
Created 0 atoms
  using lattice units in orthogonal box = (0 0 0) to (50.396842 50.396842 50.396842)
  create_atoms CPU = 0.000 seconds
Created 0 atoms
  using lattice units in orthogonal box = (0 0 0) to (50.396842 50.396842 50.396842)
  create_atoms CPU = 0.000 seconds
Created 0 atoms
  using lattice units in orthogonal box = (0 0 0) to (50.396842 50.396842 50.396842)
  create_atoms CPU = 0.000 seconds
Created 0 atoms
  using lattice units in orthogonal box = (0 0 0) to (50.396842 50.396842 50.396842)
  create_atoms CPU = 0.000 seconds
Created 0 atoms
  using lattice units in orthogonal box = (0 0 0) to (50.396842 50.396842 50.396842)
  create_atoms CPU = 0.000 seconds
Created 0 atoms
  using lattice units in orthogonal box = (0 0 0) to (50.396842 50.396842 50.396842)
  create_atoms CPU = 0.000 seconds
Created 0 atoms
  using lattice units in orthogonal box = (0 0 0) to (50.396842 50.396842 50.396842)
  create_atoms CPU = 0.000 seconds
Created 0 atoms
  using lattice units in orthogonal box = (0 0 0) to (50.396842 50.396842 50.396842)
  create_atoms CPU = 0.000 seconds
Created 0 atoms
  using lattice units in orthogonal box = (0 0 0) to (50.396842 50.396842 50.396842)
  create_atoms CPU = 0.000 seconds
Created 0 atoms
  using lattice units in orthogonal box = (0 0 0) to (50.396842 50.396842 50.396842)
  create_atoms CPU = 0.000 seconds
Created 0 atoms
  using lattice units in orthogonal box = (0 0 0) to (50.396842 50.396842 50.396842)
  create_atoms CPU = 0.000 seconds
Created 0 atoms
  using lattice units in orthogonal box = (0 0 0) to (50.396842 50.396842 50.396842)
  create_atoms CPU = 0.000 seconds
Created 0 atoms
  using lattice units in orthogonal box = (0 0 0) to (50.396842 50.396842 50.396842)
  create_atoms CPU = 0.000 seconds
Created 0 atoms
  using lattice units in orthogonal box = (0 0 0) to (50.396842 50.396842 50.396842)
  create_atoms CPU = 0.000 seconds
Created 0 atoms
  using lattice units in orthogonal box = (0 0 0) to (50.396842 50.396842 50.396842)
  create_atoms CPU = 0.000 seconds
Created 0 atoms
  using lattice units in orthogonal box = (0 0 0) to (50.396842 50.396842 50.396842)
  create_atoms CPU = 0.000 seconds
Created 0 atoms
  using lattice units in orthogonal box = (0 0 0) to (50.396842 50.396842 50.396842)
  create_atoms CPU = 0.000 seconds
Created 0 atoms
  using lattice units in orthogonal box = (0 0 0) to (50.396842 50.396842 50.396842)
  create_atoms CPU = 0.000 seconds
Created 0 atoms
  using lattice units in orthogonal box = (0 0 0) to (50.396842 50.396842 50.396842)
  create_atoms CPU = 0.000 seconds
Created 0 atoms
  using lattice units in orthogonal box = (0 0 0) to (50.396842 50.396842 50.396842)
  create_atoms CPU = 0.000 seconds
Created 0 atoms
  using lattice units in orthogonal box = (0 0 0) to (50.396842 50.396842 50.396842)
  create_atoms CPU = 0.000 seconds
Created 0 atoms
  using lattice units in orthogonal box = (0 0 0) to (50.396842 50.396842 50.396842)
  create_atoms CPU = 0.001 seconds
Created 0 atoms
  using lattice units in orthogonal box = (0 0 0) to (50.396842 50.396842 50.396842)
  create_atoms CPU = 0.000 seconds
Created 0 atoms
  using lattice units in orthogonal box = (0 0 0) to (50.396842 50.396842 50.396842)
  create_atoms CPU = 0.000 seconds
Created 0 atoms
  using lattice units in orthogonal box = (0 0 0) to (50.396842 50.396842 50.396842)
  create_atoms CPU = 0.000 seconds
Created 0 atoms
  using lattice units in orthogonal box = (0 0 0) to (50.396842 50.396842 50.396842)
  create_atoms CPU = 0.000 seconds
Created 0 atoms
  using lattice units in orthogonal box = (0 0 0) to (50.396842 50.396842 50.396842)
  create_atoms CPU = 0.000 seconds
Created 0 atoms
  using lattice units in orthogonal box = (0 0 0) to (50.396842 50.396842 50.396842)
  create_atoms CPU = 0.000 seconds
Created 0 atoms
  using lattice units in orthogonal box = (0 0 0) to (50.396842 50.396842 50.396842)
  create_atoms CPU = 0.000 seconds
Created 0 atoms
  using lattice units in orthogonal box = (0 0 0) to (50.396842 50.396842 50.396842)
  create_atoms CPU = 0.000 seconds
Created 0 atoms
  using lattice units in orthogonal box = (0 0 0) to (50.396842 50.396842 50.396842)
  create_atoms CPU = 0.000 seconds
Created 0 atoms
  using lattice units in orthogonal box = (0 0 0) to (50.396842 50.396842 50.396842)
  create_atoms CPU = 0.000 seconds
Created 0 atoms
  using lattice units in orthogonal box = (0 0 0) to (50.396842 50.396842 50.396842)
  create_atoms CPU = 0.000 seconds
Created 0 atoms
  using lattice units in orthogonal box = (0 0 0) to (50.396842 50.396842 50.396842)
  create_atoms CPU = 0.000 seconds
Created 0 atoms
  using lattice units in orthogonal box = (0 0 0) to (50.396842 50.396842 50.396842)
  create_atoms CPU = 0.000 seconds
Created 0 atoms
  using lattice units in orthogonal box = (0 0 0) to (50.396842 50.396842 50.396842)
  create_atoms CPU = 0.000 seconds
Created 0 atoms
  using lattice units in orthogonal box = (0 0 0) to (50.396842 50.396842 50.396842)
  create_atoms CPU = 0.000 seconds
Created 0 atoms
  using lattice units in orthogonal box = (0 0 0) to (50.396842 50.396842 50.396842)
  create_atoms CPU = 0.000 seconds
Created 0 atoms
  using lattice units in orthogonal box = (0 0 0) to (50.396842 50.396842 50.396842)
  create_atoms CPU = 0.000 seconds
Created 0 atoms
  using lattice units in orthogonal box = (0 0 0) to (50.396842 50.396842 50.396842)
  create_atoms CPU = 0.000 seconds
Created 0 atoms
  using lattice units in orthogonal box = (0 0 0) to (50.396842 50.396842 50.396842)
  create_atoms CPU = 0.000 seconds
Created 0 atoms
  using lattice units in orthogonal box = (0 0 0) to (50.396842 50.396842 50.396842)
  create_atoms CPU = 0.000 seconds
Created 0 atoms
  using lattice units in orthogonal box = (0 0 0) to (50.396842 50.396842 50.396842)
  create_atoms CPU = 0.000 seconds
Created 0 atoms
  using lattice units in orthogonal box = (0 0 0) to (50.396842 50.396842 50.396842)
  create_atoms CPU = 0.000 seconds
Created 0 atoms
  using lattice units in orthogonal box = (0 0 0) to (50.396842 50.396842 50.396842)
  create_atoms CPU = 0.001 seconds
Created 0 atoms
  using lattice units in orthogonal box = (0 0 0) to (50.396842 50.396842 50.396842)
  create_atoms CPU = 0.000 seconds
Created 0 atoms
  using lattice units in orthogonal box = (0 0 0) to (50.396842 50.396842 50.396842)
  create_atoms CPU = 0.000 seconds
Created 0 atoms
  using lattice units in orthogonal box = (0 0 0) to (50.396842 50.396842 50.396842)
  create_atoms CPU = 0.000 seconds
Created 0 atoms
  using lattice units in orthogonal box = (0 0 0) to (50.396842 50.396842 50.396842)
  create_atoms CPU = 0.000 seconds
Created 0 atoms
  using lattice units in orthogonal box = (0 0 0) to (50.396842 50.396842 50.396842)
  create_atoms CPU = 0.000 seconds
Created 0 atoms
  using lattice units in orthogonal box = (0 0 0) to (50.396842 50.396842 50.396842)
  create_atoms CPU = 0.000 seconds
Created 0 atoms
  using lattice units in orthogonal box = (0 0 0) to (50.396842 50.396842 50.396842)
  create_atoms CPU = 0.000 seconds
Created 0 atoms
  using lattice units in orthogonal box = (0 0 0) to (50.396842 50.396842 50.396842)
  create_atoms CPU = 0.000 seconds
Created 0 atoms
  using lattice units in orthogonal box = (0 0 0) to (50.396842 50.396842 50.396842)
  create_atoms CPU = 0.000 seconds
Created 0 atoms
  using lattice units in orthogonal box = (0 0 0) to (50.396842 50.396842 50.396842)
  create_atoms CPU = 0.000 seconds
Created 0 atoms
  using lattice units in orthogonal box = (0 0 0) to (50.396842 50.396842 50.396842)
  create_atoms CPU = 0.000 seconds
Created 0 atoms
  using lattice units in orthogonal box = (0 0 0) to (50.396842 50.396842 50.396842)
  create_atoms CPU = 0.000 seconds
Created 0 atoms
  using lattice units in orthogonal box = (0 0 0) to (50.396842 50.396842 50.396842)
  create_atoms CPU = 0.000 seconds
Created 0 atoms
  using lattice units in orthogonal box = (0 0 0) to (50.396842 50.396842 50.396842)
  create_atoms CPU = 0.000 seconds
Created 0 atoms
  using lattice units in orthogonal box = (0 0 0) to (50.396842 50.396842 50.396842)
  create_atoms CPU = 0.000 seconds
Created 0 atoms
  using lattice units in orthogonal box = (0 0 0) to (50.396842 50.396842 50.396842)
  create_atoms CPU = 0.000 seconds
Created 0 atoms
  using lattice units in orthogonal box = (0 0 0) to (50.396842 50.396842 50.396842)
  create_atoms CPU = 0.000 seconds
Created 0 atoms
  using lattice units in orthogonal box = (0 0 0) to (50.396842 50.396842 50.396842)
  create_atoms CPU = 0.000 seconds
35140 atoms in group all
32800 atoms in group atoms
2340 atoms in group polys
16800 atoms in group subA
16000 atoms in group subB
Setting atom values ...
  16800 settings made for vx
  16800 settings made for vy
  16800 settings made for vz
Setting atom values ...
  16000 settings made for vx
  16000 settings made for vy
  16000 settings made for vz
Setting atom values ...
  35140 settings made for diameter
Setting atom values ...
  35140 settings made for omega
Generated 0 of 1 mixed pair_coeff terms from geometric mixing rule
Neighbor list info ...
  update: every = 100 steps, delay = 0 steps, check = yes
  max neighbors/atom: 2000, page size: 100000
  master list distance cutoff = 2.6224615
  ghost atom cutoff = 2.6224615
  binsize = 2.6224615, bins = 20 20 20
  2 neighbor lists, perpetual/occasional/extra = 1 1 0
  (1) command create_bonds, occasional, copy from (2)
      attributes: full, newton off
      pair build: copy/kk/device
      stencil: none
      bin: none
  (2) pair lj/cut/kk, perpetual
      attributes: full, newton off, kokkos_device
      pair build: full/bin/kk/device
      stencil: full/bin/3d
      bin: kk/device
Added 2280 bonds, new total = 2280
Finding 1-2 1-3 1-4 neighbors ...
  special bond factors lj:    0        0        0       
  special bond factors coul:  0        0        0       
     2 = max # of 1-2 neighbors
     2 = max # of 1-3 neighbors
     4 = max # of 1-4 neighbors
     6 = max # of special neighbors
  special bonds CPU = 0.006 seconds
Finding 1-2 1-3 1-4 neighbors ...
  special bond factors lj:    0        1        1       
  special bond factors coul:  0        0        0       
     2 = max # of 1-2 neighbors
     2 = max # of 1-3 neighbors
     4 = max # of 1-4 neighbors
     6 = max # of special neighbors
  special bonds CPU = 0.006 seconds

CITE-CITE-CITE-CITE-CITE-CITE-CITE-CITE-CITE-CITE-CITE-CITE-CITE

Your simulation uses code contributions which should be cited:
- KOKKOS package: https://doi.org/10.1145/3731599.3767498
The log file lists these citations in BibTeX format.

CITE-CITE-CITE-CITE-CITE-CITE-CITE-CITE-CITE-CITE-CITE-CITE-CITE

Generated 0 of 1 mixed pair_coeff terms from geometric mixing rule
Neighbor list info ...
  update: every = 100 steps, delay = 0 steps, check = yes
  max neighbors/atom: 2000, page size: 100000
  master list distance cutoff = 2.6224615
  ghost atom cutoff = 6
  binsize = 2.6224615, bins = 20 20 20
  1 neighbor lists, perpetual/occasional/extra = 1 0 0
  (1) pair lj/cut/kk, perpetual
      attributes: full, newton off, kokkos_device
      pair build: full/bin/kk/device
      stencil: full/bin/3d
      bin: kk/device
Setting up Verlet run ...
  Unit style    : lj
  Current step  : 0
  Time step     : 0.0001
WARNING: Inconsistent image flags
For more information see https://docs.lammps.org/err0027 (src/domain.cpp:1052)
WARNING: Bond/angle/dihedral extent > half of periodic box length (src/domain.cpp:1174)
0  ekin = 527.085000000001 | epot = 47208206.4665115 | etot = 47208733.5515115
Per MPI rank memory allocation (min/avg/max) = 27.73 | 27.73 | 27.73 Mbytes
   Step          Temp          E_pair         E_mol          TotEng         Press     
         0   0.01          -1.9354401e-07  1343.4322      1343.4472     -253.11038    
