LAMMPS (19 Nov 2024)
KOKKOS mode with Kokkos version 4.4.1 is enabled (../kokkos.cpp:72)
  will use up to 1 GPU(s) per node
  using 2 OpenMP thread(s) per MPI task
package kokkos
package kokkos comm no neigh half
variable number	equal 2
variable ofreq	equal 1000
variable efreq	equal 1000
variable T      equal 0.1

units lj

dimension 3

newton on

boundary  p p p

atom_style hybrid/kk bond/kk ellipsoid/kk oxdna/kk
WARNING: Atom style hybrid defines both, per-type and per-atom masses; both must be set, but only per-atom masses will be used (../atom_vec_hybrid.cpp:132)
atom_modify sort 0 1.0

# Pair interactions require lists of neighbours to be calculated
neighbor 2.0 bin
neigh_modify every 1 delay 0 check yes

read_data data.duplex2
Reading data file ...
  orthogonal box = (-20 -20 -20) to (20 20 20)
  1 by 1 by 1 MPI processor grid
  reading atoms ...
  16 atoms
  reading velocities ...
  16 velocities
  scanning bonds ...
  1 = max bonds/atom
  16 ellipsoids
  orthogonal box = (-20 -20 -20) to (20 20 20)
  1 by 1 by 1 MPI processor grid
  reading bonds ...
  13 bonds
Finding 1-2 1-3 1-4 neighbors ...
  special bond factors lj:    0        0        0       
  special bond factors coul:  0        0        0       
     2 = max # of 1-2 neighbors
     2 = max # of 1-3 neighbors
     4 = max # of 1-4 neighbors
     6 = max # of special neighbors
  special bonds CPU = 0.001 seconds
  read_data CPU = 0.019 seconds

set atom * mass 3.1575
Setting atom values ...
  16 settings made for mass

group all type 1 4
16 atoms in group all

# oxDNA bond interactions - FENE backbone
bond_style hybrid/kk oxdna/fene/kk harmonic/kk
bond_coeff 1 oxdna/fene/kk 2.0 0.25 0.7564
bond_coeff 2 harmonic/kk 0.0 0.25
special_bonds lj 0 1 1
Finding 1-2 1-3 1-4 neighbors ...
  special bond factors lj:    0        1        1       
  special bond factors coul:  0        0        0       
     2 = max # of 1-2 neighbors
     2 = max # of 1-3 neighbors
     4 = max # of 1-4 neighbors
     6 = max # of special neighbors
  special bonds CPU = 0.001 seconds

# oxDNA pair interactions
pair_style hybrid/overlay/kk oxdna/excv/kk oxdna/stk/kk oxdna/hbond/kk oxdna/xstk/kk
pair_coeff * * oxdna/excv/kk    2.0 0.7 0.675 2.0 0.515 0.5 2.0 0.33 0.32
pair_coeff * * oxdna/stk/kk     seqav ${T} 1.3448 2.6568 6.0 0.4 0.9 0.32 0.75 1.3 0 0.8 0.9 0 0.95 0.9 0 0.95 2.0 0.65 2.0 0.65
pair_coeff * * oxdna/stk/kk     seqav 0.1 1.3448 2.6568 6.0 0.4 0.9 0.32 0.75 1.3 0 0.8 0.9 0 0.95 0.9 0 0.95 2.0 0.65 2.0 0.65
pair_coeff * * oxdna/hbond/kk   seqav 0.0   8.0 0.4 0.75 0.34 0.7 1.5 0 0.7 1.5 0 0.7 1.5 0 0.7 0.46 3.141592653589793 0.7 4.0 1.5707963267948966 0.45 4.0 1.5707963267948966 0.45
pair_coeff 1 4 oxdna/hbond/kk   seqav 1.077 8.0 0.4 0.75 0.34 0.7 1.5 0 0.7 1.5 0 0.7 1.5 0 0.7 0.46 3.141592653589793 0.7 4.0 1.5707963267948966 0.45 4.0 1.5707963267948966 0.45
pair_coeff 2 3 oxdna/hbond/kk   seqav 1.077 8.0 0.4 0.75 0.34 0.7 1.5 0 0.7 1.5 0 0.7 1.5 0 0.7 0.46 3.141592653589793 0.7 4.0 1.5707963267948966 0.45 4.0 1.5707963267948966 0.45
pair_coeff * * oxdna/xstk/kk    47.5 0.575 0.675 0.495 0.655 2.25 0.791592653589793 0.58 1.7 1.0 0.68 1.7 1.0 0.68 1.5 0 0.65 1.7 0.875 0.68 1.7 0.875 0.68

# NVE ensemble
fix 1 all nve/asphere
#fix 2 all langevin ${T} ${T} 2.5 457145 angmom 10

timestep 1e-5

#comm_style tiled
fix 3 all balance 1000 1.03 shift xyz 10 1.03
comm_modify cutoff 3.8

compute quat all property/atom quatw quati quatj quatk

compute erot all erotate/asphere
compute ekin all ke
compute epot all pe

variable erot equal c_erot
variable ekin equal c_ekin
variable epot equal c_epot
variable etot equal c_erot+c_ekin+c_epot

#compute ebond all bond
compute eexcv all pair oxdna/excv/kk
compute estk all pair oxdna/stk/kk
compute ehbond all pair oxdna/hbond/kk
compute exstk all pair oxdna/xstk/kk

#variable ebond equal c_ebond[1]
variable eexcv equal c_eexcv
variable estk equal c_estk
variable ehbond equal c_ehbond
variable exstk equal c_exstk

fix 5 all print ${efreq} "$(step)  ekin = ${ekin} |  erot = ${erot} | epot = ${epot} | ebond = BLANK | eexcv = ${eexcv} | estk = ${estk} | ehbond = ${ehbond} | exstk = ${exstk} | etot = ${etot}" screen yes
fix 5 all print 1000 "$(step)  ekin = ${ekin} |  erot = ${erot} | epot = ${epot} | ebond = BLANK | eexcv = ${eexcv} | estk = ${estk} | ehbond = ${ehbond} | exstk = ${exstk} | etot = ${etot}" screen yes

dump out all custom ${ofreq} out.${number}.lammpstrj id mol type x y z ix iy iz vx vy vz c_quat[1] c_quat[2] c_quat[3] c_quat[4] angmomx angmomy angmomz
dump out all custom 1000 out.${number}.lammpstrj id mol type x y z ix iy iz vx vy vz c_quat[1] c_quat[2] c_quat[3] c_quat[4] angmomx angmomy angmomz
dump out all custom 1000 out.2.lammpstrj id mol type x y z ix iy iz vx vy vz c_quat[1] c_quat[2] c_quat[3] c_quat[4] angmomx angmomy angmomz
dump_modify out sort id
dump_modify out format line "%d %d %d  %22.15le %22.15le %22.15le  %d %d %d  %22.15le %22.15le %22.15le  %22.15le %22.15le %22.15le %22.15le  %22.15le %22.15le %22.15le"

run_style verlet/kk
run 100000
Generated 0 of 6 mixed pair_coeff terms from geometric mixing rule
Neighbor list info ...
  update: every = 1 steps, delay = 0 steps, check = yes
  max neighbors/atom: 2000, page size: 100000
  master list distance cutoff = 2.9560004
  ghost atom cutoff = 3.8
  binsize = 2.9560004, bins = 14 14 14
  4 neighbor lists, perpetual/occasional/extra = 4 0 0
  (1) pair oxdna/excv/kk, perpetual
      attributes: half, newton on, kokkos_device
      pair build: half/bin/newton/kk/device
      stencil: half/bin/3d
      bin: kk/device
  (2) pair oxdna/stk/kk, perpetual, copy from (1)
      attributes: half, newton on, kokkos_device
      pair build: copy/kk/device
      stencil: none
      bin: none
  (3) pair oxdna/hbond/kk, perpetual, copy from (1)
      attributes: half, newton on, kokkos_device
      pair build: copy/kk/device
      stencil: none
      bin: none
  (4) pair oxdna/xstk/kk, perpetual, copy from (1)
      attributes: half, newton on, kokkos_device
      pair build: copy/kk/device
      stencil: none
      bin: none
0  ekin = 2.70475393009871 |  erot = 2.80172072918779 | epot = -21.6802006626528 | ebond = BLANK | eexcv = 0 | estk = -15.2193008759655 | ehbond = -4.76636136372935 | exstk = -1.95717055370069 | etot = -16.1737260033663
Per MPI rank memory allocation (min/avg/max) = 10.13 | 10.13 | 10.13 Mbytes
   Step          Temp          E_pair         E_mol          TotEng         Press          Volume    
         0   0.12021129    -1.371427       0.016414508   -1.1859654      6.4498242e-05  64000        
1000  ekin = 2.64073031032797 |  erot = 2.68630405056809 | epot = -21.5007661038385 | ebond = BLANK | eexcv = 0 | estk = -15.1174818646072 | ehbond = -4.69105931496352 | exstk = -1.95259232988418 | etot = -16.1737317429424
2000  ekin = 2.5738905244839 |  erot = 2.57893693781922 | epot = -21.3265592044535 | ebond = BLANK | eexcv = 0 | estk = -15.0115937329833 | ehbond = -4.62089344668448 | exstk = -1.95498252703998 | etot = -16.1737317421504
3000  ekin = 2.5070402614835 |  erot = 2.48787490414686 | epot = -21.1686469071778 | ebond = BLANK | eexcv = 0 | estk = -14.9028051809029 | ehbond = -4.56377999799893 | exstk = -1.96599296780349 | etot = -16.1737317415475
4000  ekin = 2.44276766131852 |  erot = 2.41919688267564 | epot = -21.0356962851476 | ebond = BLANK | eexcv = 0 | estk = -14.7924909691092 | ehbond = -4.52556192395581 | exstk = -1.98666989794597 | etot = -16.1737317411535
5000  ekin = 2.38323991347675 |  erot = 2.37602436983222 | epot = -20.9329960243575 | ebond = BLANK | eexcv = 0 | estk = -14.6824897701064 | ehbond = -4.50898928951521 | exstk = -2.01725724601043 | etot = -16.1737317410485
6000  ekin = 2.33021835294045 |  erot = 2.35831721974023 | epot = -20.8622673137853 | ebond = BLANK | eexcv = 0 | estk = -14.5753082363177 | ehbond = -4.51345318108259 | exstk = -2.05708778016752 | etot = -16.1737317411047
7000  ekin = 2.28528639826149 |  erot = 2.36393904261631 | epot = -20.8229571821701 | ebond = BLANK | eexcv = 0 | estk = -14.4741062322874 | ehbond = -4.53634954359048 | exstk = -2.10454430139726 | etot = -16.1737317412923
8000  ekin = 2.24971698175664 |  erot = 2.38921839416908 | epot = -20.8126671175206 | ebond = BLANK | eexcv = 0 | estk = -14.3823524014896 | ehbond = -4.57383935307072 | exstk = -2.15708708511697 | etot = -16.1737317415949
9000  ekin = 2.22416476353272 |  erot = 2.42946725380848 | epot = -20.8273637593356 | ebond = BLANK | eexcv = 0 | estk = -14.3032044721074 | ehbond = -4.62158237774791 | exstk = -2.21136237654736 | etot = -16.1737317419944
10000  ekin = 2.20834227677511 |  erot = 2.47950253463658 | epot = -20.8615765538832 | ebond = BLANK | eexcv = 0 | estk = -14.238801905013 | ehbond = -4.67544535947922 | exstk = -2.26341098311576 | etot = -16.1737317424715
11000  ekin = 2.2008161082444 |  erot = 2.5340607757378 | epot = -20.9086086270007 | ebond = BLANK | eexcv = 0 | estk = -14.1897316399887 | ehbond = -4.73195161376886 | exstk = -2.30897877110807 | etot = -16.1737317430185
12000  ekin = 2.19898750855695 |  erot = 2.58788999505152 | epot = -20.9606092472512 | ebond = BLANK | eexcv = 0 | estk = -14.1548813915545 | ehbond = -4.78813429538432 | exstk = -2.34390328442745 | etot = -16.1737317436428
13000  ekin = 2.19929762482729 |  erot = 2.63548218442132 | epot = -21.0085115535824 | ebond = BLANK | eexcv = 0 | estk = -14.1317440324989 | ehbond = -4.84077512752897 | exstk = -2.36453514015141 | etot = -16.1737317443338
14000  ekin = 2.19772447600077 |  erot = 2.67082156091349 | epot = -21.0422777819267 | ebond = BLANK | eexcv = 0 | estk = -14.1170589012823 | ehbond = -4.88561825753308 | exstk = -2.36815828347885 | etot = -16.1737317450124
15000  ekin = 2.19060641133512 |  erot = 2.68776643887368 | epot = -21.0521045957229 | ebond = BLANK | eexcv = 0 | estk = -14.107561347574 | ehbond = -4.91746348334936 | exstk = -2.35338091531853 | etot = -16.1737317455141
16000  ekin = 2.17565107330896 |  erot = 2.68138107525808 | epot = -21.0307638942142 | ebond = BLANK | eexcv = 0 | estk = -14.1006050688315 | ehbond = -4.93158938693682 | exstk = -2.32045095260638 | etot = -16.1737317456471
17000  ekin = 2.15275819495469 |  erot = 2.64977612327957 | epot = -20.9762660635363 | ebond = BLANK | eexcv = 0 | estk = -14.0945037677535 | ehbond = -4.92592802708982 | exstk = -2.27140916384611 | etot = -16.173731745302
18000  ekin = 2.12422729222529 |  erot = 2.59541000187215 | epot = -20.8933690386272 | ebond = BLANK | eexcv = 0 | estk = -14.0885555068274 | ehbond = -4.9026502494373 | exstk = -2.20997808917497 | etot = -16.1737317445298
19000  ekin = 2.09424218656115 |  erot = 2.5251402175483 | epot = -20.7931141469267 | ebond = BLANK | eexcv = 0 | estk = -14.0828163296999 | ehbond = -4.86808205207127 | exstk = -2.14138191773433 | etot = -16.1737317428172
20000  ekin = 2.06837364095065 |  erot = 2.45091385978116 | epot = -20.6930192427245 | ebond = BLANK | eexcv = 0 | estk = -14.077725224239 | ehbond = -4.83087475011696 | exstk = -2.07470514879931 | etot = -16.1737317419927
21000  ekin = 2.05024783531097 |  erot = 2.38226575108125 | epot = -20.6062453277347 | ebond = BLANK | eexcv = 0 | estk = -14.0737391468484 | ehbond = -4.79954630884952 | exstk = -2.01483919268259 | etot = -16.1737317413425
22000  ekin = 2.04197159874991 |  erot = 2.32620551729514 | epot = -20.5419088569503 | ebond = BLANK | eexcv = 0 | estk = -14.0711907493774 | ehbond = -4.78099061144962 | exstk = -1.96439231121198 | etot = -16.1737317409053
23000  ekin = 2.04457416465627 |  erot = 2.28784916506093 | epot = -20.5061550703725 | ebond = BLANK | eexcv = 0 | estk = -14.0702962924295 | ehbond = -4.77991744847529 | exstk = -1.925280061718 | etot = -16.1737317406553
24000  ekin = 2.05825244027879 |  erot = 2.27047801540934 | epot = -20.5024621962316 | ebond = BLANK | eexcv = 0 | estk = -14.0712707291164 | ehbond = -4.79901389233597 | exstk = -1.89872113033862 | etot = -16.1737317405434
25000  ekin = 2.08272958444575 |  erot = 2.27585162391749 | epot = -20.5323129488901 | ebond = BLANK | eexcv = 0 | estk = -14.0744772584242 | ehbond = -4.83941697675055 | exstk = -1.88525781639919 | etot = -16.1737317405269
26000  ekin = 2.1175654735669 |  erot = 2.30447954565354 | epot = -20.5957767598086 | ebond = BLANK | eexcv = 0 | estk = -14.0805382022897 | ehbond = -4.90113899246556 | exstk = -1.88477613718276 | etot = -16.1737317405882
27000  ekin = 2.16232211285869 |  erot = 2.3556937313461 | epot = -20.6917475849444 | ebond = BLANK | eexcv = 0 | estk = -14.0903592931238 | ehbond = -4.98324906667549 | exstk = -1.89651481670014 | etot = -16.1737317407396
28000  ekin = 2.21654203231607 |  erot = 2.42749327377362 | epot = -20.8177670471078 | ebond = BLANK | eexcv = 0 | estk = -14.1050512142462 | ehbond = -5.08375509533411 | exstk = -1.91906558733931 | etot = -16.1737317410181
29000  ekin = 2.27953470641349 |  erot = 2.51622334385108 | epot = -20.9694897917419 | ebond = BLANK | eexcv = 0 | estk = -14.125758039932 | ehbond = -5.19921943870302 | exstk = -1.95037935576353 | etot = -16.1737317414774
30000  ekin = 2.34999184142276 |  erot = 2.61620542914101 | epot = -21.1399290127369 | ebond = BLANK | eexcv = 0 | estk = -14.1534173470701 | ehbond = -5.32419719529416 | exstk = -1.98780331713874 | etot = -16.1737317421731
31000  ekin = 2.42548279138044 |  erot = 2.71947551821534 | epot = -21.318690052739 | ebond = BLANK | eexcv = 0 | estk = -14.1884843147911 | ehbond = -5.45064188533096 | exstk = -2.02818055909543 | etot = -16.1737317431433
32000  ekin = 2.501941075136 |  erot = 2.81583626377809 | epot = -21.4915090832863 | ebond = BLANK | eexcv = 0 | estk = -14.2306597770573 | ehbond = -5.56752627368287 | exstk = -2.06804261134625 | etot = -16.1737317443722
33000  ekin = 2.57335985144234 |  erot = 2.89349724652172 | epot = -21.6405888437096 | ebond = BLANK | eexcv = 0 | estk = -14.2786760560456 | ehbond = -5.66109987775767 | exstk = -2.10391328413831 | etot = -16.1737317457456
34000  ekin = 2.63202990943329 |  erot = 2.94059273215784 | epot = -21.7463543886076 | ebond = BLANK | eexcv = 0 | estk = -14.3302110716687 | ehbond = -5.71634604092925 | exstk = -2.13271542907399 | etot = -16.1737317470165
35000  ekin = 2.66963581482133 |  erot = 2.94764279895621 | epot = -21.7910103616167 | ebond = BLANK | eexcv = 0 | estk = -14.3820031525118 | ehbond = -5.72000044423292 | exstk = -2.1522291184895 | etot = -16.1737317478391
36000  ekin = 2.67785599252829 |  erot = 2.90982397292657 | epot = -21.7614117136846 | ebond = BLANK | eexcv = 0 | estk = -14.4302060096713 | ehbond = -5.66468195504012 | exstk = -2.15952028648183 | etot = -16.1737317482298
37000  ekin = 2.65178201788144 |  erot = 2.8297459706826 | epot = -21.6552597359041 | ebond = BLANK | eexcv = 0 | estk = -14.4709688290545 | ehbond = -5.55264721111549 | exstk = -2.15284887202317 | etot = -16.1737317473401
38000  ekin = 2.59332138912594 |  erot = 2.71853106104941 | epot = -21.485584195897 | ebond = BLANK | eexcv = 0 | estk = -14.5010767029163 | ehbond = -5.39676889575481 | exstk = -2.13458787956401 | etot = -16.1737317457217
39000  ekin = 2.50938754052802 |  erot = 2.59252669631979 | epot = -21.2756459806598 | ebond = BLANK | eexcv = 0 | estk = -14.5184459533153 | ehbond = -5.21761634908212 | exstk = -2.10859688022142 | etot = -16.173731743812
40000  ekin = 2.40991357010309 |  erot = 2.46917124368098 | epot = -21.0528165558523 | ebond = BLANK | eexcv = 0 | estk = -14.5223769407363 | ehbond = -5.03798609100832 | exstk = -2.07935427261398 | etot = -16.1737317420682
41000  ekin = 2.30524720270158 |  erot = 2.36319096846025 | epot = -20.8421699119567 | ebond = BLANK | eexcv = 0 | estk = -14.513553591129 | ehbond = -4.87737813541433 | exstk = -2.05110133428705 | etot = -16.1737317407948
42000  ekin = 2.20404117527522 |  erot = 2.28437393145733 | epot = -20.6621468468197 | ebond = BLANK | eexcv = 0 | estk = -14.4938641885722 | ehbond = -4.74848168495406 | exstk = -2.02722227680168 | etot = -16.1737317400871
43000  ekin = 2.11224971071501 |  erot = 2.23714070413053 | epot = -20.5231221547189 | ebond = BLANK | eexcv = 0 | estk = -14.4661390390035 | ehbond = -4.6563235341205 | exstk = -2.00994396026969 | etot = -16.1737317398734
44000  ekin = 2.03318978712815 |  erot = 2.22140478773668 | epot = -20.4283263148641 | ebond = BLANK | eexcv = 0 | estk = -14.433865510315 | ehbond = -4.59950994965273 | exstk = -2.0003159331962 | etot = -16.1737317399993
45000  ekin = 1.96824559605336 |  erot = 2.23400817514071 | epot = -20.3759855114983 | ebond = BLANK | eexcv = 0 | estk = -14.4008936339295 | ehbond = -4.57250963540965 | exstk = -1.9983723982497 | etot = -16.1737317403042
46000  ekin = 1.91775367922497 |  erot = 2.27011523131096 | epot = -20.3616006512086 | ebond = BLANK | eexcv = 0 | estk = -14.3711217134415 | ehbond = -4.56800902672861 | exstk = -2.00337339632256 | etot = -16.1737317406727
47000  ekin = 1.8817514796807 |  erot = 2.32414290712256 | epot = -20.3796261278565 | ebond = BLANK | eexcv = 0 | estk = -14.3481609579678 | ehbond = -4.57867603966234 | exstk = -2.01404772967682 | etot = -16.1737317410532
48000  ekin = 1.86046070466719 |  erot = 2.39008024234511 | epot = -20.4242726884538 | ebond = BLANK | eexcv = 0 | estk = -14.3350095284794 | ehbond = -4.59806387086192 | exstk = -2.02879745942166 | etot = -16.1737317414415
49000  ekin = 1.85453911816694 |  erot = 2.46141542386959 | epot = -20.4896862838678 | ebond = BLANK | eexcv = 0 | estk = -14.3337964271677 | ehbond = -4.62084766519228 | exstk = -2.04586166225009 | etot = -16.1737317418313
50000  ekin = 1.86520065243135 |  erot = 2.53116344250854 | epot = -20.5700958371273 | ebond = BLANK | eexcv = 0 | estk = -14.3456591165787 | ehbond = -4.64290295811492 | exstk = -2.06346127576324 | etot = -16.1737317421874
51000  ekin = 1.89419512080207 |  erot = 2.59236513133316 | epot = -20.6602919946102 | ebond = BLANK | eexcv = 0 | estk = -14.3707824106126 | ehbond = -4.66154592184167 | exstk = -2.07994456349357 | etot = -16.173731742475
52000  ekin = 1.94342111706703 |  erot = 2.63888789989154 | epot = -20.7560407596841 | ebond = BLANK | eexcv = 0 | estk = -14.4085648643776 | ehbond = -4.67558558102076 | exstk = -2.09392842940501 | etot = -16.1737317427255
53000  ekin = 2.01395505753421 |  erot = 2.66596042750989 | epot = -20.8536472280788 | ebond = BLANK | eexcv = 0 | estk = -14.4578341992238 | ehbond = -4.68451422528862 | exstk = -2.10441055331834 | etot = -16.1737317430347
54000  ekin = 2.1047975750856 |  erot = 2.67023392461641 | epot = -20.9487632431472 | ebond = BLANK | eexcv = 0 | estk = -14.5170376190467 | ehbond = -4.68702634851452 | exstk = -2.11083341244799 | etot = -16.1737317434452
55000  ekin = 2.21223826373888 |  erot = 2.64991566754153 | epot = -21.0358856751301 | ebond = BLANK | eexcv = 0 | estk = -14.5843681241031 | ehbond = -4.68034915526323 | exstk = -2.11310092457716 | etot = -16.1737317438497
56000  ekin = 2.33049612936381 |  erot = 2.60550007158193 | epot = -21.1097279450084 | ebond = BLANK | eexcv = 0 | estk = -14.6578066447051 | ehbond = -4.66158218528876 | exstk = -2.11154940943454 | etot = -16.1737317440626
57000  ekin = 2.45319376360148 |  erot = 2.54061121739108 | epot = -21.1675367249958 | ebond = BLANK | eexcv = 0 | estk = -14.7350579069952 | ehbond = -4.63015389250248 | exstk = -2.10685831634192 | etot = -16.1737317440032
58000  ekin = 2.57454018891698 |  erot = 2.46183474868895 | epot = -21.2101066813774 | ebond = BLANK | eexcv = 0 | estk = -14.813382053216 | ehbond = -4.58915784067021 | exstk = -2.09989107436388 | etot = -16.1737317437714
59000  ekin = 2.68960280004408 |  erot = 2.37715762888649 | epot = -21.2404921724873 | ebond = BLANK | eexcv = 0 | estk = -14.889387299844 | ehbond = -4.54447503432058 | exstk = -2.09149427803852 | etot = -16.1737317435567
60000  ekin = 2.7939518054651 |  erot = 2.293851746224 | epot = -21.2615352952224 | ebond = BLANK | eexcv = 0 | estk = -14.9588975640335 | ehbond = -4.50262483037376 | exstk = -2.08231569265425 | etot = -16.1737317435333
61000  ekin = 2.88301928303892 |  erot = 2.21681518844817 | epot = -21.273566215167 | ebond = BLANK | eexcv = 0 | estk = -15.0170026926381 | ehbond = -4.46853317876242 | exstk = -2.07269588810327 | etot = -16.1737317436799
62000  ekin = 2.95231380243648 |  erot = 2.14836775149316 | epot = -21.2744132978954 | ebond = BLANK | eexcv = 0 | estk = -15.0583675414451 | ehbond = -4.44525364313384 | exstk = -2.06265589926805 | etot = -16.1737317439657
63000  ekin = 2.99782884399997 |  erot = 2.08883884409125 | epot = -21.2603994323805 | ebond = BLANK | eexcv = 0 | estk = -15.0778418847057 | ehbond = -4.43428842701639 | exstk = -2.05196819360317 | etot = -16.1737317442893
64000  ekin = 3.01641731009291 |  erot = 2.03747418399657 | epot = -21.2276232386198 | ebond = BLANK | eexcv = 0 | estk = -15.0714150466957 | ehbond = -4.43578681281878 | exstk = -2.04028849696195 | etot = -16.1737317445303
65000  ekin = 3.00648641115799 |  erot = 1.99352858496134 | epot = -21.1737467406864 | ebond = BLANK | eexcv = 0 | estk = -15.0375185176732 | ehbond = -4.44887225911982 | exstk = -2.02731764660144 | etot = -16.1737317445671
66000  ekin = 2.96878176029098 |  erot = 1.95721978235808 | epot = -21.0997332869497 | ebond = BLANK | eexcv = 0 | estk = -14.9785079474225 | ehbond = -4.47174974371754 | exstk = -2.01295594471889 | etot = -16.1737317443006
67000  ekin = 2.907270397152 |  erot = 1.93069330166042 | epot = -21.0116954424894 | ebond = BLANK | eexcv = 0 | estk = -14.9018457727445 | ehbond = -4.50171740217398 | exstk = -1.9979658070824 | etot = -16.173731743677
68000  ekin = 2.82902915200485 |  erot = 1.9177653592379 | epot = -20.9205262540984 | ebond = BLANK | eexcv = 0 | estk = -14.8201802130851 | ehbond = -4.5352942709986 | exstk = -1.98340996152976 | etot = -16.1737317428556
69000  ekin = 2.74311139139408 |  erot = 1.92257004492373 | epot = -20.8394131783136 | ebond = BLANK | eexcv = 0 | estk = -14.7495340076377 | ehbond = -4.56867762936308 | exstk = -1.96952863977317 | etot = -16.1737317419958
70000  ekin = 2.65910346937332 |  erot = 1.94866261501191 | epot = -20.7814978258 | ebond = BLANK | eexcv = 0 | estk = -14.7054139543615 | ehbond = -4.59834879044787 | exstk = -1.95669630421102 | etot = -16.1737317414148
71000  ekin = 2.58447790386929 |  erot = 1.99700054557422 | epot = -20.7552101908349 | ebond = BLANK | eexcv = 0 | estk = -14.6979165285553 | ehbond = -4.62149402085546 | exstk = -1.94524605477289 | etot = -16.1737317413914
72000  ekin = 2.52229544001877 |  erot = 2.06429727760905 | epot = -20.7603244596362 | ebond = BLANK | eexcv = 0 | estk = -14.728010048192 | ehbond = -4.63597191607704 | exstk = -1.93529817246597 | etot = -16.1737317420084
73000  ekin = 2.47045878105409 |  erot = 2.14274400987342 | epot = -20.7869345340085 | ebond = BLANK | eexcv = 0 | estk = -14.7870349927918 | ehbond = -4.63990995920651 | exstk = -1.92666891345367 | etot = -16.173731743081
74000  ekin = 2.42298724089988 |  erot = 2.22158313339032 | epot = -20.8183021185186 | ebond = BLANK | eexcv = 0 | estk = -14.8598379822227 | ehbond = -4.63142923080696 | exstk = -1.91889752597071 | etot = -16.1737317442284
75000  ekin = 2.37268990142155 |  erot = 2.29010793980341 | epot = -20.8365295862696 | ebond = BLANK | eexcv = 0 | estk = -14.9299640670248 | ehbond = -4.60902601838735 | exstk = -1.91138574192754 | etot = -16.1737317450446
76000  ekin = 2.31396313992324 |  erot = 2.340913322154 | epot = -20.8286082073414 | ebond = BLANK | eexcv = 0 | estk = -14.9844820996462 | ehbond = -4.57262840203118 | exstk = -1.90359978436196 | etot = -16.1737317452642
77000  ekin = 2.24459907779533 |  erot = 2.37210305439109 | epot = -20.790433877026 | ebond = BLANK | eexcv = 0 | estk = -15.0167196216378 | ehbond = -4.52471062011842 | exstk = -1.89526011319975 | etot = -16.1737317448396
78000  ekin = 2.16618451867911 |  erot = 2.38772422667922 | epot = -20.7276404892682 | ebond = BLANK | eexcv = 0 | estk = -15.0265782579308 | ehbond = -4.47070728092595 | exstk = -1.88645165425334 | etot = -16.1737317439098
79000  ekin = 2.08335341843534 |  erot = 2.39654816708834 | epot = -20.6536333282336 | ebond = BLANK | eexcv = 0 | estk = -15.0191287782293 | ehbond = -4.41844258330455 | exstk = -1.87762314551205 | etot = -16.17373174271
80000  ekin = 2.0024735035441 |  erot = 2.40989961188057 | epot = -20.5861048569082 | ebond = BLANK | eexcv = 0 | estk = -15.0024557730867 | ehbond = -4.37687936729741 | exstk = -1.86948812856894 | etot = -16.1737317414835
81000  ekin = 1.93028638802113 |  erot = 2.43930076027214 | epot = -20.5433188887277 | ebond = BLANK | eexcv = 0 | estk = -14.9854775615101 | ehbond = -4.35471318283215 | exstk = -1.86286995122327 | etot = -16.1737317404344
82000  ekin = 1.87278768763565 |  erot = 2.49442386781077 | epot = -20.5409432951576 | ebond = BLANK | eexcv = 0 | estk = -14.9761065253665 | ehbond = -4.35918389012609 | exstk = -1.8585401834112 | etot = -16.1737317397112
83000  ekin = 1.83443197387751 |  erot = 2.58155336801915 | epot = -20.5897170813048 | ebond = BLANK | eexcv = 0 | estk = -14.9798738054253 | ehbond = -4.39523200343067 | exstk = -1.85708978933051 | etot = -16.1737317394082
84000  ekin = 1.81765065197133 |  erot = 2.70260353820984 | epot = -20.6939859297492 | ebond = BLANK | eexcv = 0 | estk = -14.9990564484479 | ehbond = -4.46497418120269 | exstk = -1.85885591418202 | etot = -16.173731739568
85000  ekin = 1.82265041551828 |  erot = 2.85469758558145 | epot = -20.8510797412822 | ebond = BLANK | eexcv = 0 | estk = -15.0323460401998 | ehbond = -4.56742281916894 | exstk = -1.86391172579169 | etot = -16.1737317401825
86000  ekin = 1.8474648726475 |  erot = 3.03031315845749 | epot = -21.0515097722994 | ebond = BLANK | eexcv = 0 | estk = -15.0751005083865 | ehbond = -4.69838575193666 | exstk = -1.87211482502013 | etot = -16.1737317411945
87000  ekin = 1.88821854100468 |  erot = 3.21798446426627 | epot = -21.2799347478712 | ebond = BLANK | eexcv = 0 | estk = -15.120171697669 | ehbond = -4.85052942960532 | exstk = -1.88318254609961 | etot = -16.1737317426002
88000  ekin = 1.9387584699755 |  erot = 3.40333449829039 | epot = -21.5158247123857 | ebond = BLANK | eexcv = 0 | estk = -15.1591982876894 | ehbond = -5.01362055490058 | exstk = -1.8958148076064 | etot = -16.1737317441198
89000  ekin = 1.99205752724994 |  erot = 3.5706846834076 | epot = -21.7364739563012 | ebond = BLANK | eexcv = 0 | estk = -15.1841194302412 | ehbond = -5.17504358259154 | exstk = -1.90866075538695 | etot = -16.1737317456436
90000  ekin = 2.04130180079644 |  erot = 3.7049295692305 | epot = -21.9199631170227 | ebond = BLANK | eexcv = 0 | estk = -15.1885878255627 | ehbond = -5.3208597379185 | exstk = -1.92078289595739 | etot = -16.1737317469958
91000  ekin = 2.08036853181547 |  erot = 3.79325385966978 | epot = -22.0473541394938 | ebond = BLANK | eexcv = 0 | estk = -15.1690065150394 | ehbond = -5.43729000982252 | exstk = -1.93130136494438 | etot = -16.1737317480086
92000  ekin = 2.10462664546158 |  erot = 3.82668145674647 | epot = -22.1050398507495 | ebond = BLANK | eexcv = 0 | estk = -15.1249844801075 | ehbond = -5.51254953181583 | exstk = -1.93942026282671 | etot = -16.1737317485415
93000  ekin = 2.11158300331387 |  erot = 3.80125609867443 | epot = -22.0865708504985 | ebond = BLANK | eexcv = 0 | estk = -15.0591759092572 | ehbond = -5.53877765777243 | exstk = -1.94445276148025 | etot = -16.1737317485102
94000  ekin = 2.10121213400055 |  erot = 3.71866260742044 | epot = -21.9936064893381 | ebond = BLANK | eexcv = 0 | estk = -14.9766264052504 | ehbond = -5.51356708307791 | exstk = -1.94586799289745 | etot = -16.1737317479171
95000  ekin = 2.07584089708151 |  erot = 3.58609407777104 | epot = -21.8356667217079 | ebond = BLANK | eexcv = 0 | estk = -14.8838443758623 | ehbond = -5.44054491668686 | exstk = -1.94336787667421 | etot = -16.1737317468553
96000  ekin = 2.03961068190684 |  erot = 3.41533566519353 | epot = -21.6286780925822 | ebond = BLANK | eexcv = 0 | estk = -14.7878296227132 | ehbond = -5.3287853347443 | exstk = -1.93697793412937 | etot = -16.1737317454818
97000  ekin = 1.9977069335488 |  erot = 3.2212528111869 | epot = -21.3926914887176 | ebond = BLANK | eexcv = 0 | estk = -14.6952356466258 | ehbond = -5.1912930086854 | exstk = -1.92711608252273 | etot = -16.1737317439819
98000  ekin = 1.95557978883037 |  erot = 3.01993848434713 | epot = -21.1492500157192 | ebond = BLANK | eexcv = 0 | estk = -14.6117523702046 | ehbond = -5.04298986064759 | exstk = -1.9145993754462 | etot = -16.1737317425417
99000  ekin = 1.91828761182921 |  erot = 2.82675421144276 | epot = -20.9187735645966 | ebond = BLANK | eexcv = 0 | estk = -14.5417166762719 | ehbond = -4.89858546423327 | exstk = -1.90056634743318 | etot = -16.1737317413246
100000  ekin = 1.89000081235673 |  erot = 2.65454763251651 | epot = -20.7182801853208 | ebond = BLANK | eexcv = 0 | estk = -14.4879179875986 | ehbond = -4.77067060647708 | exstk = -1.88632503617372 | etot = -16.1737317404475
    100000   0.084000036   -1.3215571      0.02666459    -1.1767675     -5.5961393e-05  64000        
Loop time of 90.1323 on 2 procs for 100000 steps with 16 atoms

Performance: 958.591 tau/day, 1109.480 timesteps/s, 17.752 katom-step/s
100.0% CPU use with 1 MPI tasks x 2 OpenMP threads

MPI task timing breakdown:
Section |  min time  |  avg time  |  max time  |%varavg| %total
---------------------------------------------------------------
Pair    | 67.165     | 67.165     | 67.165     |   0.0 | 74.52
Bond    | 4.0381     | 4.0381     | 4.0381     |   0.0 |  4.48
Neigh   | 0.031172   | 0.031172   | 0.031172   |   0.0 |  0.03
Comm    | 10.625     | 10.625     | 10.625     |   0.0 | 11.79
Output  | 0.0053662  | 0.0053662  | 0.0053662  |   0.0 |  0.01
Modify  | 0.77193    | 0.77193    | 0.77193    |   0.0 |  0.86
Other   |            | 7.496      |            |       |  8.32

Nlocal:             16 ave          16 max          16 min
Histogram: 1 0 0 0 0 0 0 0 0 0
Nghost:              0 ave           0 max           0 min
Histogram: 1 0 0 0 0 0 0 0 0 0
Neighs:            106 ave         106 max         106 min
Histogram: 1 0 0 0 0 0 0 0 0 0

Total # of neighbors = 106
Ave neighs/atom = 6.625
Ave special neighs/atom = 3.75
Neighbor list builds = 100
Dangerous builds = 0

Total wall time: 0:01:30
