ITEM: TIMESTEP
0
ITEM: NUMBER OF ATOMS
16
ITEM: BOX BOUNDS pp pp pp
-2.0000000000000000e+01 2.0000000000000000e+01
-2.0000000000000000e+01 2.0000000000000000e+01
-2.0000000000000000e+01 2.0000000000000000e+01
ITEM: ATOMS id mol type x y z ix iy iz vx vy vz c_quat[1] c_quat[2] c_quat[3] c_quat[4] angmomx angmomy angmomz
1 1 1 -6.133472972454725e-01 -6.574781716697660e-01  3.606522635120190e-01 0 0 0  5.386890022865587e-02  2.262922525602673e-02  2.488229114473675e-01  9.964752158482045e-01 -5.325355573323980e-02  1.139116380710251e-02 -6.380787090289707e-02  1.772010258006941e-01 -2.958853170000101e-01 -2.624137503614725e-01
2 1 2 -4.526276424735636e-01 -1.003065053434591e+00  7.258693379233347e-01 0 0 0 -3.995003075629463e-02  2.696951106370198e-01 -1.898645454819566e-01  9.369923833143513e-01  1.122071604464856e-01  6.732538499716349e-02  3.239168400846305e-01 -3.061453937596818e-02 -1.176951893148060e-01  4.007470242647321e-02
3 1 3 -9.883421085226410e-02 -1.239775807128057e+00  1.069462285786363e+00 0 0 0 -2.078453529520138e-01 -1.362872235767304e-01 -6.062477950201746e-02  7.979649320918270e-01  1.447309635452787e-01  1.837414269936639e-01  5.554673737937029e-01 -3.676034584820381e-02 -6.308707793373186e-02 -1.479860157608762e-01
4 1 4  2.937771854299732e-01 -1.257975092489984e+00  1.425891608660697e+00 0 0 0 -2.396982418131700e-01 -5.624721730878831e-01  3.247442290503672e-02  5.660864821344559e-01  1.468827549948105e-01  9.873742533340191e-02  8.051226439917721e-01 -1.652364596501651e-01  2.860623077030974e-01  3.354351975310588e-01
5 1 1  6.286896795685137e-01 -1.018334339511974e+00  1.768934633967282e+00 0 0 0 -1.611489735682835e-01 -2.288969747076015e-01 -1.355332496264956e-01  2.533023785125306e-01  1.206231316167983e-01  8.583012223905846e-02  9.559922359911086e-01  7.151030852881342e-02 -9.415592891043179e-02  1.342288153931229e-01
6 1 2  7.901522619067926e-01 -6.766341805565266e-01  2.154016070549575e+00 0 0 0 -4.701706588477693e-02  1.921671558511004e-01  1.458824279129722e-01 -3.855807343534716e-02  8.405913137017908e-02  2.236505169306371e-02  9.954632800204194e-01  9.218622989776322e-02 -5.640128930702024e-01  9.287105657777776e-02
7 1 3  7.115777184886863e-01 -4.019557932514345e-01  2.569568683291525e+00 0 0 0  5.098438305112513e-02 -3.845955552200959e-02 -1.424419628574967e-01 -4.559284433024802e-01  1.004550065061007e-01 -5.252474529475878e-02  8.827679181910482e-01  3.479046835475834e-01  4.244922695910593e-01 -1.358288260435836e-01
8 1 4  4.697331037700523e-01 -3.025169796710703e-01  3.066800711751922e+00 0 0 0  3.782797134841193e-01 -4.953992506010833e-02  1.626392045834847e-01  7.680212215404908e-01 -9.582139884533597e-03  3.658677589040892e-02 -6.393066507464399e-01  4.428876596361290e-02  7.868414126013584e-02 -1.271360044432503e-01
9 2 1  4.056113349449848e-01 -1.443775499211898e+00  3.059072650334112e+00 0 0 0  4.912038408665491e-02  4.126064731871670e-02  1.222385633449523e-02 -2.329997575451234e-01  6.886863952313410e-01  6.747873944883376e-01 -1.268232401684158e-01  3.282916621721876e-02 -1.267054709525600e-04  1.559787854176960e-01
10 2 2 -3.202842905928752e-02 -1.294752097116472e+00  2.720107115139219e+00 0 0 0  1.939216183073483e-01  1.107523548538194e-01 -4.050505160199710e-02 -2.466206187190723e-01  8.744456399178389e-01  3.937083608782400e-01 -1.397026120939516e-01 -1.700813500181381e-01 -4.563093565840761e-01 -3.031851362703951e-01
11 2 3 -3.161385511231407e-01 -9.084141759061610e-01  2.412520787178201e+00 0 0 0 -3.513607339206460e-01 -1.882241906753569e-01  3.614793819905130e-01 -8.747590085090901e-02  9.773676023882290e-01  1.449354911309558e-01 -1.268630757266878e-01 -3.708221604627426e-01 -4.910838182594122e-01  9.435948331955418e-02
12 2 4 -3.893939125182100e-01 -4.866605488242819e-01  2.006177777000426e+00 0 0 0 -1.188642917357977e-01  2.235528245655188e-01  9.265586122144348e-03 -3.181169300779214e-02  9.634374984140114e-01 -2.442360692534372e-01 -1.054748563087919e-01 -2.823010018885836e-01  1.027648566082889e-01  1.017523347678070e-01
13 3 1 -6.232643040853296e-02 -7.155965522127403e-02  1.559320605273073e+00 0 0 0 -1.446616296238799e-01 -1.155205990978724e-01  1.331477187595642e-01 -3.278607069657226e-02  7.922941528811774e-01 -6.084214170523914e-01 -3.191282109962716e-02 -2.549872189037434e-01  2.754663721641154e-01  5.806416868630132e-02
14 3 2  1.788409039091338e-01 -5.516721349427172e-02  1.021273149730912e+00 0 0 0  5.154712003586254e-02 -3.661102651077563e-01 -6.630782880801242e-02  4.718868628834144e-02  6.316396208287697e-01 -7.737349519945346e-01  1.178309584462780e-02 -1.199984717331652e-01  6.844768922886051e-02  2.161595932308759e-01
15 3 3  4.513439961906000e-01 -2.379560738327457e-01  5.957328539615993e-01 0 0 0 -2.021424496209139e-01  2.334122693355961e-01  8.133374252278069e-03 -5.869980642620334e-02 -3.422935820341442e-01  9.376740835056506e-01  1.251996587850869e-02 -1.701391112413525e-01  1.870292260510287e-02 -2.682954134361106e-01
16 3 4  5.077649359807965e-01 -5.565625134533538e-01  1.655875784458841e-01 0 0 0 -1.920213116286801e-01 -8.105295741355378e-02 -4.693508108850740e-02 -8.582818143150042e-02  8.707732197394232e-04  9.939540921464659e-01 -6.846917358531610e-02  1.733210765264759e-02 -3.287658886280769e-01  1.085334141225924e-01
ITEM: TIMESTEP
1000
ITEM: NUMBER OF ATOMS
16
ITEM: BOX BOUNDS pp pp pp
-2.0000000000000000e+01 2.0000000000000000e+01
-2.0000000000000000e+01 2.0000000000000000e+01
-2.0000000000000000e+01 2.0000000000000000e+01
ITEM: ATOMS id mol type x y z ix iy iz vx vy vz c_quat[1] c_quat[2] c_quat[3] c_quat[4] angmomx angmomy angmomz
1 1 1 -6.128549084971792e-01 -6.572778389826508e-01  3.630256772445071e-01 0 0 0  4.461491464450392e-02  1.742890081010243e-02  2.254011115552361e-01  9.964225228468881e-01 -5.088418732510772e-02  8.586528456690588e-03 -6.692702722195755e-02  1.959716663625358e-01 -2.454036332124110e-01 -2.580712798984223e-01
2 1 2 -4.530727282084459e-01 -1.000382591676027e+00  7.238959244816290e-01 0 0 0 -4.908356491477936e-02  2.664868224865686e-01 -2.040896797190974e-01  9.369690902150087e-01  1.113064271959095e-01  6.645783771588741e-02  3.244736646519553e-01 -5.984900451910367e-02 -8.584327113369830e-02  4.544573480131823e-02
3 1 3 -1.009360924138317e-01 -1.241078284008568e+00  1.069072496840680e+00 0 0 0 -2.124930444543958e-01 -1.242191250950552e-01 -1.729442531138245e-02  7.990976251188484e-01  1.445351313738302e-01  1.827304212964330e-01  5.542221345823299e-01  3.890768552095655e-02 -1.011519144455487e-01 -1.535659792772053e-01
4 1 4  2.913983187293471e-01 -1.263500392178474e+00  1.426135550521096e+00 0 0 0 -2.359580590063339e-01 -5.423866234680240e-01  1.656301473127825e-02  5.629475536494526e-01  1.479088286979264e-01  1.028105592213618e-01  8.066244597989172e-01 -1.977701144807040e-01  2.746760871761156e-01  3.384276455229001e-01
5 1 1  6.271447077621339e-01 -1.020673019401023e+00  1.767554451984189e+00 0 0 0 -1.479016455493939e-01 -2.385790663946508e-01 -1.400580781177556e-01  2.518063754096027e-01  1.196776940515040e-01  8.494980571236377e-02  9.565847214748021e-01  7.368262009711976e-02 -9.153702246181387e-02  1.364402225157303e-01
6 1 2  7.897750762048292e-01 -6.747406216310252e-01  2.155542245283870e+00 0 0 0 -2.887097915150137e-02  1.861434922719649e-01  1.602107827841108e-01 -3.969346321092462e-02  7.777233770559427e-02  2.166678303804925e-02  9.959449999768624e-01  8.912468476964813e-02 -5.212683725700781e-01  1.148105485903482e-01
7 1 3  7.121272467187575e-01 -4.022657608467763e-01  2.568261988781954e+00 0 0 0  5.917049311567934e-02 -2.345036543315937e-02 -1.185592464014424e-01 -4.546762283470003e-01  1.029346182191799e-01 -5.832514839110458e-02  8.827639371957680e-01  3.243417700671516e-01  4.284238473598740e-01 -1.345024309679340e-01
8 1 4  4.735330501384055e-01 -3.030012684615133e-01  3.068421888897273e+00 0 0 0  3.816379395012927e-01 -4.730160771285587e-02  1.615095266797368e-01  7.670129768779219e-01 -9.812093545376672e-03  3.759763271775182e-02 -6.404539281908938e-01  2.863622222935440e-02  8.662915575061496e-02 -1.387461169841410e-01
9 2 1  4.060804714471386e-01 -1.443400459120393e+00  3.059079392801767e+00 0 0 0  4.474144969939469e-02  3.374763423896899e-02 -1.085834601017795e-02 -2.329171793618812e-01  6.874205618854764e-01  6.760548841369305e-01 -1.270919048946974e-01  5.155487730227287e-03 -9.347099972090991e-04  1.571310515364232e-01
10 2 2 -3.011373445933088e-02 -1.293648272879150e+00  2.719688755685268e+00 0 0 0  1.886684375958284e-01  1.099467662494004e-01 -4.328251187267978e-02 -2.431705352379959e-01  8.770016692517870e-01  3.917513136285087e-01 -1.351557294086481e-01 -2.011301678778179e-01 -4.497265747479429e-01 -2.805325516031923e-01
11 2 3 -3.197730113342336e-01 -9.102607979099152e-01  2.416065979236171e+00 0 0 0 -3.749596670572481e-01 -1.807578287752734e-01  3.462650500589175e-01 -8.242192189754526e-02  9.782747361468189e-01  1.458384587076787e-01 -1.221323518538614e-01 -3.638392330145165e-01 -4.732733689702165e-01  7.598581146790161e-02
12 2 4 -3.906468304497387e-01 -4.844636498336111e-01  2.006356292182659e+00 0 0 0 -1.316316379324819e-01  2.155283004241446e-01  2.626358695240159e-02 -2.828173746023961e-02  9.636994403081718e-01 -2.434742341965717e-01 -1.058481429139866e-01 -2.811240785488686e-01  1.011123789219787e-01  1.038812515639357e-01
13 3 1 -6.373257392962546e-02 -7.277550693424772e-02  1.560548510328255e+00 0 0 0 -1.366570208053099e-01 -1.277543818182734e-01  1.121109063352885e-01 -2.857460219605670e-02  7.927125162048339e-01 -6.080428811874635e-01 -3.277519487030561e-02 -2.342398366885270e-01  2.850892428240321e-01  6.650954930544606e-02
14 3 2  1.793743860154124e-01 -5.886368855533177e-02  1.020588498660033e+00 0 0 0  5.500968106871249e-02 -3.729572075627833e-01 -7.064650307938942e-02  4.848918491869735e-02  6.335341414778770e-01 -7.720947167418875e-01  1.237088950214946e-02 -8.974434532569346e-02  5.944694404175194e-02  2.212916254517922e-01
15 3 3  4.493556544063960e-01 -2.356149586326905e-01  5.958942522988178e-01 0 0 0 -1.953938343466786e-01  2.346469293503496e-01  2.384595227905709e-02 -5.968008909362467e-02 -3.392720059926801e-01  9.387312000667641e-01  1.079476431853165e-02 -2.025445778194029e-01  3.390588633220791e-02 -2.678044058022206e-01
16 3 4  5.058657347559220e-01 -5.573670264867790e-01  1.651747711313987e-01 0 0 0 -1.878814247179783e-01 -7.961691600249374e-02 -3.552475552272925e-02 -8.205630020182447e-02 -1.365164455284707e-04  9.942807308585562e-01 -6.835622286100815e-02  2.041038471570233e-02 -3.164696240117819e-01  1.086400411233040e-01
ITEM: TIMESTEP
2000
ITEM: NUMBER OF ATOMS
16
ITEM: BOX BOUNDS pp pp pp
-2.0000000000000000e+01 2.0000000000000000e+01
-2.0000000000000000e+01 2.0000000000000000e+01
-2.0000000000000000e+01 2.0000000000000000e+01
ITEM: ATOMS id mol type x y z ix iy iz vx vy vz c_quat[1] c_quat[2] c_quat[3] c_quat[4] angmomx angmomy angmomz
1 1 1 -6.124549454213200e-01 -6.571293641248003e-01  3.651512105693863e-01 0 0 0  3.537500850347058e-02  1.229746634158065e-02  1.992530294958889e-01  9.963567289129244e-01 -4.834003900028262e-02  6.382997313123194e-03 -6.996975578554733e-02  2.145173172666657e-01 -1.930184460130578e-01 -2.548406641728737e-01
2 1 2 -4.536090623285330e-01 -9.977416570472943e-01  7.218039553136772e-01 0 0 0 -5.814317470469595e-02  2.613785346725674e-01 -2.133961270397379e-01  9.369390289839876e-01  1.102180446851894e-01  6.601788959109754e-02  3.250213482930832e-01 -8.515815633524677e-02 -5.851450367817233e-02  4.935057870535250e-02
3 1 3 -1.030835339803185e-01 -1.242260232859596e+00  1.069116017311079e+00 0 0 0 -2.169782068654783e-01 -1.121656859859615e-01  2.592292690346040e-02  8.002134116461442e-01  1.448000883106901e-01  1.808816094708007e-01  5.531485095361892e-01  1.138480648956245e-01 -1.389043414225348e-01 -1.581243042582310e-01
4 1 4  2.890603874446067e-01 -1.268819083174163e+00  1.426228189191073e+00 0 0 0 -2.315093169600304e-01 -5.211779028929976e-01  2.245964229305606e-03  5.598457368514497e-01  1.486280317730597e-01  1.070929478055925e-01  8.080925439767603e-01 -2.261694390896273e-01  2.637150741034427e-01  3.377753113107095e-01
5 1 1  6.257301080233806e-01 -1.023100409417497e+00  1.766142575352719e+00 0 0 0 -1.351146352256993e-01 -2.466085669774337e-01 -1.418549552041083e-01  2.502791144602294e-01  1.187839334567967e-01  8.405627152367759e-02  9.571756814895961e-01  7.660491410888028e-02 -8.562658659817049e-02  1.383151077634998e-01
6 1 2  7.895661539190328e-01 -6.729188439469201e-01  2.157235413860603e+00 0 0 0 -1.332417394327359e-02  1.778620401565682e-01  1.790659859749049e-01 -4.108261725361130e-02  7.203475243917459e-02  2.101028859972577e-02  9.963341712365268e-01  8.425102185436756e-02 -4.672656262165099e-01  1.359135168889535e-01
7 1 3  7.127655877898346e-01 -4.024232184385469e-01  2.567203388507518e+00 0 0 0  6.869353209028023e-02 -7.965671017930045e-03 -9.290878619267005e-02 -4.534013793658587e-01  1.055804296679098e-01 -6.388932222182396e-02  8.827219927963234e-01  2.985470515377894e-01  4.321634270667807e-01 -1.304484302020944e-01
8 1 4  4.773643596959712e-01 -3.034625569385208e-01  3.070029249257922e+00 0 0 0  3.845455183242926e-01 -4.492704629430611e-02  1.598835406049392e-01  7.659093576102158e-01 -1.023030904471777e-02  3.856983190605905e-02 -6.417090966853239e-01  1.398108369776358e-02  9.494830767472373e-02 -1.508871626879569e-01
9 2 1  4.065069643634944e-01 -1.443100604669527e+00  3.058856020540826e+00 0 0 0  4.060251491601705e-02  2.621729046545023e-02 -3.377911561660095e-02 -2.326092638046467e-01  6.862238771633312e-01  6.772864693037152e-01 -1.275647259288147e-01 -2.173543438563257e-02 -2.291926494706315e-03  1.568017207931851e-01
10 2 2 -2.826163438712626e-02 -1.292554536858568e+00  2.719239721788365e+00 0 0 0  1.814435899374650e-01  1.087278240865446e-01 -4.658324693234216e-02 -2.393882123593410e-01  8.794856088087113e-01  3.899534013689466e-01 -1.308995509639317e-01 -2.337303609502724e-01 -4.397144140535311e-01 -2.539746349911105e-01
11 2 3 -3.236265757401028e-01 -9.120230196656718e-01  2.419422293547236e+00 0 0 0 -3.952149925288906e-01 -1.713992594737566e-01  3.239241076066707e-01 -7.749656970110833e-02  9.791277874968325e-01  1.465164232695951e-01 -1.176265069973770e-01 -3.585657728275483e-01 -4.454418846488248e-01  5.788636704313323e-02
12 2 4 -3.920244183775565e-01 -4.823561030044854e-01  2.006699012470700e+00 0 0 0 -1.437623150046429e-01  2.056681692136581e-01  4.205348267248901e-02 -2.477075791408323e-02  9.639539190857789e-01 -2.426882926300296e-01 -1.062150839186749e-01 -2.788853860272864e-01  1.009670687493315e-01  1.050861227614126e-01
13 3 1 -6.506143755756279e-02 -7.411654013889921e-02  1.561556772812561e+00 0 0 0 -1.292114365888649e-01 -1.405275454900356e-01  8.926071139850150e-02 -2.449467861367210e-02  7.931594854201979e-01 -6.075770519129222e-01 -3.388461887615286e-02 -2.103995868882435e-01  2.950224169772567e-01  7.362305928067686e-02
14 3 2  1.799384400470481e-01 -6.262191564323921e-02  1.019860222898869e+00 0 0 0  5.767456572241591e-02 -3.784711961525687e-01 -7.498329834419472e-02  4.948444161225349e-02  6.354792413875847e-01 -7.704250546220842e-01  1.275378431454175e-02 -5.853335243053558e-02  5.040834993185352e-02  2.251290193899287e-01
15 3 3  4.474384993961211e-01 -2.332665045082596e-01  5.962028194037525e-01 0 0 0 -1.879309797922189e-01  2.348707690611453e-01  3.747369617445097e-02 -6.092875520235048e-02 -3.362381200998339e-01  9.397629236634522e-01  8.789805955899786e-03 -2.316478836559460e-01  4.618791995238700e-02 -2.653982341184642e-01
16 3 4  5.040059943758787e-01 -5.581504898664960e-01  1.648783773866988e-01 0 0 0 -1.841334601908344e-01 -7.687349614359426e-02 -2.372153038958405e-02 -7.843222824577221e-02 -1.143447170620773e-03  9.945824608812895e-01 -6.821148443106453e-02  2.254883788071120e-02 -3.029457426727653e-01  1.063041239670793e-01
ITEM: TIMESTEP
3000
ITEM: NUMBER OF ATOMS
16
ITEM: BOX BOUNDS pp pp pp
-2.0000000000000000e+01 2.0000000000000000e+01
-2.0000000000000000e+01 2.0000000000000000e+01
-2.0000000000000000e+01 2.0000000000000000e+01
ITEM: ATOMS id mol type x y z ix iy iz vx vy vz c_quat[1] c_quat[2] c_quat[3] c_quat[4] angmomx angmomy angmomz
1 1 1 -6.121476130790875e-01 -6.570308799208116e-01  3.670016336761656e-01 0 0 0  2.607281003779277e-02  7.467857589752968e-03  1.703723856621382e-01  9.962799364967491e-01 -4.562701310633655e-02  4.802029976960715e-03 -7.294795622310801e-02  2.328238221039323e-01 -1.389474870683908e-01 -2.523804004297737e-01
2 1 2 -4.542342924181438e-01 -9.951614692818836e-01  7.196477343008064e-01 0 0 0 -6.681501883732076e-02  2.543386588131789e-01 -2.167902685604275e-01  9.369065008985519e-01  1.089723386166277e-01  6.593142196538329e-02  3.255522778112259e-01 -1.054877811317204e-01 -3.693024890498493e-02  5.138727234668118e-02
3 1 3 -1.052754776886572e-01 -1.243321413974898e+00  1.069588309202809e+00 0 0 0 -2.214086852069675e-01 -1.000592322740376e-01  6.834525825662800e-02  8.013019557261688e-01  1.455147866931960e-01  1.782096413119056e-01  5.522517056076268e-01  1.868634889432003e-01 -1.760573780988675e-01 -1.611421953264953e-01
4 1 4  2.867705126592310e-01 -1.273920725082421e+00  1.426186356960356e+00 0 0 0 -2.263468692121930e-01 -4.990009421256121e-01 -1.030603760676850e-02  5.568076332455304e-01  1.490783198270424e-01  1.115417152274634e-01  8.095056268372524e-01 -2.499949101021650e-01  2.533207590509821e-01  3.334116108998906e-01
5 1 1  6.244401435265888e-01 -1.025599119422439e+00  1.764726647339689e+00 0 0 0 -1.230075255089294e-01 -2.528179456462769e-01 -1.408667807432140e-01  2.487206307251674e-01  1.179806607443879e-01  8.315018661351209e-02  9.577602299156771e-01  8.025806173821920e-02 -7.642850550289626e-02  1.397665761193049e-01
6 1 2  7.895009659791237e-01 -6.711898255305576e-01  2.159134005451114e+00 0 0 0 -6.446845608671364e-05  1.676467339652574e-01  2.010539449113707e-01 -4.271440571492376e-02  6.696340064714074e-02  2.040779149135784e-02  9.966317798287575e-01  7.773737570129877e-02 -4.044991919523767e-01  1.557197135474932e-01
7 1 3  7.135044792568790e-01 -4.024236112228347e-01  2.566408033541471e+00 0 0 0  7.922523690212097e-02  7.958769125212138e-03 -6.599100400686807e-02 -4.521272565769525e-01  1.083997300860907e-01 -6.919256244210324e-02  8.826340304339942e-01  2.711926167205052e-01  4.352488266528153e-01 -1.241101636957303e-01
8 1 4  4.812223315149043e-01 -3.038991097907779e-01  3.071618038447958e+00 0 0 0  3.869646089386891e-01 -4.234286006456727e-02  1.578006470486043e-01  7.647053769184435e-01 -1.083007722490914e-02  3.951387553826334e-02 -6.430762393210235e-01  3.633711926408411e-04  1.036268116567937e-01 -1.636273870003684e-01
9 2 1  4.068935321624937e-01 -1.442876289966091e+00  3.058404763120516e+00 0 0 0  3.676653862805153e-02  1.863409226469905e-02 -5.641371936359395e-02 -2.320809414577379e-01  6.851064108397702e-01  6.784728896483735e-01 -1.282270659826698e-01 -4.770145379088792e-02 -4.213445811068444e-03  1.549602877729636e-01
10 2 2 -2.649060433517866e-02 -1.291475269458259e+00  2.718756455056063e+00 0 0 0  1.724960013447839e-01  1.070422468810363e-01 -5.007554939947331e-02 -2.352703610486496e-01  8.818806665075569e-01  3.883431440831362e-01 -1.269801153561053e-01 -2.672817878739654e-01 -4.268327689552570e-01 -2.242155250694657e-01
11 2 3 -3.276670575273981e-01 -9.136836124585475e-01  2.422525474189340e+00 0 0 0 -4.123949789123302e-01 -1.604885955919685e-01  2.958868497086908e-01 -7.269794954293471e-02  9.799211190089011e-01  1.469633679829344e-01 -1.134520917555462e-01 -3.545384829005468e-01 -4.095584279773269e-01  3.997923619856005e-02
12 2 4 -3.935193055094457e-01 -4.803566612088165e-01  2.007192409291532e+00 0 0 0 -1.550633056903860e-01  1.938965318017097e-01  5.636082945356034e-02 -2.128776042304089e-02  9.641961286989598e-01 -2.418879642461414e-01 -1.065967607902217e-01 -2.754747939009166e-01  1.026039754513564e-01  1.053104149445379e-01
13 3 1 -6.631873610270253e-02 -7.558728087184677e-02  1.562328589005470e+00 0 0 0 -1.223449558405626e-01 -1.536680110485224e-01  6.487130880934740e-02 -2.057132239398733e-02  7.936263967080469e-01 -6.070341802895114e-01 -3.526282891949635e-02 -1.839077847582466e-01  3.051783190292710e-01  7.949315810278149e-02
14 3 2  1.805254623900012e-01 -6.642885915578967e-02  1.019089896779327e+00 0 0 0  5.961474504329600e-02 -3.827085604671648e-01 -7.899824222406357e-02  5.016986792218033e-02  6.374643028124038e-01 -7.687360880844980e-01  1.292570574900268e-02 -2.698756047715029e-02  4.152043202615428e-02  2.276505364859357e-01
15 3 3  4.455989071338571e-01 -2.309211041758693e-01  5.966349770964463e-01 0 0 0 -1.799063671815078e-01  2.340260291534110e-01  4.847880173343743e-02 -6.239489085431344e-02 -3.332148147603224e-01  9.407614586880132e-01  6.530135276090892e-03 -2.566555080700017e-01  5.478624112279114e-02 -2.610971900430425e-01
16 3 4  5.021817596772821e-01 -5.589007915449539e-01  1.647004806073364e-01 0 0 0 -1.807757283591384e-01 -7.301904880717916e-02 -1.187203833799490e-02 -7.496851822691855e-02 -2.123541198988191e-03  9.948594690787780e-01 -6.804299105659967e-02  2.384977601598032e-02 -2.887565921776982e-01  1.018209263087839e-01
ITEM: TIMESTEP
4000
ITEM: NUMBER OF ATOMS
16
ITEM: BOX BOUNDS pp pp pp
-2.0000000000000000e+01 2.0000000000000000e+01
-2.0000000000000000e+01 2.0000000000000000e+01
-2.0000000000000000e+01 2.0000000000000000e+01
ITEM: ATOMS id mol type x y z ix iy iz vx vy vz c_quat[1] c_quat[2] c_quat[3] c_quat[4] angmomx angmomy angmomz
1 1 1 -6.119339109001123e-01 -6.569784921895923e-01  3.685494976650210e-01 0 0 0  1.665717494280810e-02  3.073692567766408e-03  1.387547439668349e-01  9.961933206870420e-01 -4.275115582373534e-02  3.863019181776169e-03 -7.587017580749744e-02  2.508697294794427e-01 -8.335925076482213e-02 -2.505215851447206e-01
2 1 2 -4.549432187446911e-01 -9.926611521428155e-01  7.174904573175895e-01 0 0 0 -7.484633040350204e-02  2.454218348479981e-01 -2.135030048993800e-01  9.368764648223652e-01  1.076060095270804e-01  6.610826941888136e-02  3.260569476181206e-01 -1.199771328569730e-01 -2.207554295613646e-02  5.127495321884622e-02
3 1 3 -1.075117868654497e-01 -1.244261216047685e+00  1.070477894365268e+00 0 0 0 -2.258622619595106e-01 -8.789465481585863e-02  1.092559541697197e-01  8.023493045593247e-01  1.466573780724649e-01  1.747401990288160e-01  5.515370067125579e-01  2.566566350809448e-01 -2.122779723297599e-01 -1.621689603044517e-01
4 1 4  2.845358101833155e-01 -1.278796324701806e+00  1.426028412665777e+00 0 0 0 -2.204766950299777e-01 -4.759900934075065e-01 -2.095524250049857e-02  5.538595279084926e-01  1.493014203866017e-01  1.161108656319609e-01  8.108433733451372e-01 -2.689060122233856e-01  2.435938824958927e-01  3.253226713354648e-01
5 1 1  6.232671071649660e-01 -1.028150263389820e+00  1.763334399442269e+00 0 0 0 -1.117538892480942e-01 -2.570774086803928e-01 -1.371340298684491e-01  2.471321166247232e-01  1.173058758005376e-01  8.223232851190429e-02  9.583333932315848e-01  8.456279262195625e-02 -6.408042744468349e-02  1.407171793588054e-01
6 1 2  7.895584203295080e-01 -6.695712971605219e-01  2.161262267754232e+00 0 0 0  1.125975083547714e-02  1.558133825155073e-01  2.247826425286669e-01 -4.457278990380612e-02  6.264639835277545e-02  1.986975910609569e-02  9.968419573065143e-01  6.983218669219780e-02 -3.354368638645545e-01  1.739050250624816e-01
7 1 3  7.143523631315782e-01 -4.022626169913064e-01  2.565886232686757e+00 0 0 0  9.043883529181171e-02  2.431169731945823e-02 -3.827276754676478e-02 -4.508735803175502e-01  1.113917685089514e-01 -7.421497461635779e-02  8.824947739351069e-01  2.429124970747869e-01  4.372533834848746e-01 -1.159726442358989e-01
8 1 4  4.851019178043073e-01 -3.043084952396127e-01  3.073183820306040e+00 0 0 0  3.888636975758389e-01 -3.948328628567959e-02  1.552845814521167e-01  7.633954288122684e-01 -1.160414838054955e-02  4.044051629786064e-02 -6.445597936967968e-01 -1.215775502101791e-02  1.126496982782441e-01 -1.770219266241812e-01
9 2 1  4.072434988045963e-01 -1.442728203782808e+00  3.057729151676395e+00 0 0 0  3.329145171331993e-02  1.096677808451356e-02 -7.862623572491344e-02 -2.313381951510215e-01  6.840779602708541e-01  6.796048443642562e-01 -1.290629274910926e-01 -7.258395147003063e-02 -6.709866244823463e-03  1.515872281672970e-01
10 2 2 -2.481664390675664e-02 -1.290415493747597e+00  2.718238600695615e+00 0 0 0  1.620689064530610e-01  1.048156221493042e-01 -5.345178252979682e-02 -2.308182092039303e-01  8.841725273187830e-01  3.869446802343768e-01 -1.234330209989322e-01 -3.012238685398073e-01 -4.116350638272722e-01 -1.919688606689115e-01
11 2 3 -3.318652416857009e-01 -9.152286855439210e-01  2.425325875070993e+00 0 0 0 -4.268026260313958e-01 -1.483440827196700e-01  2.635952228817449e-01 -6.802621148966091e-02  9.806525437349601e-01  1.471756738919757e-01 -1.096920417849857e-01 -3.513046901305838e-01 -3.676410636257053e-01  2.215697957588932e-02
12 2 4 -3.951224352254522e-01 -4.784847104254334e-01  2.007820679525551e+00 0 0 0 -1.653912183196311e-01  1.801647469209150e-01  6.900670266520889e-02 -1.784216016300808e-02  9.644209572599927e-01 -2.410834783213966e-01 -1.070169659394878e-01 -2.708434152292999e-01  1.061809856777578e-01  1.044865926123164e-01
13 3 1 -6.751024435357117e-02 -7.719058827088000e-02  1.562850124096653e+00 0 0 0 -1.160499716584529e-01 -1.670154198914875e-01  3.926052620360675e-02 -1.682587602925661e-02  7.941056400789482e-01 -6.064235204269576e-01 -3.692744458566970e-02 -1.552776973144121e-01  3.154520018362734e-01  8.424553684292603e-02
14 3 2  1.811285407887925e-01 -7.027195959520904e-02  1.018282643369013e+00 0 0 0  6.089671935014981e-02 -3.857068493085842e-01 -8.229350824648425e-02  5.054748951700560e-02  6.394778799454522e-01 -7.670377869967313e-01  1.288509538789649e-02  4.151384452853040e-03  3.298289738710709e-02  2.288074309796509e-01
15 3 3  4.438417439839861e-01 -2.285897661224801e-01  5.971620656735656e-01 0 0 0 -1.714701975827449e-01  2.320461291935364e-01  5.638846019452042e-02 -6.401707825380928e-02 -3.302254240740782e-01  9.417200270406404e-01  4.046437632856337e-03 -2.768710208018002e-01  5.904328956197768e-02 -2.549138476726074e-01
16 3 4  5.003892075073207e-01 -5.596077004796184e-01  1.646402456090712e-01 0 0 0 -1.778113082398485e-01 -6.819636492088839e-02 -2.358774047572690e-04 -7.167222779563059e-02 -3.053362105974229e-03  9.951125782716659e-01 -6.785812632381312e-02  2.439304716243465e-02 -2.742985274938142e-01  9.541970421243860e-02
ITEM: TIMESTEP
5000
ITEM: NUMBER OF ATOMS
16
ITEM: BOX BOUNDS pp pp pp
-2.0000000000000000e+01 2.0000000000000000e+01
-2.0000000000000000e+01 2.0000000000000000e+01
-2.0000000000000000e+01 2.0000000000000000e+01
ITEM: ATOMS id mol type x y z ix iy iz vx vy vz c_quat[1] c_quat[2] c_quat[3] c_quat[4] angmomx angmomy angmomz
1 1 1 -6.118148284235554e-01 -6.569679227808107e-01  3.697678309516045e-01 0 0 0  7.130605945189313e-03 -8.713864307755081e-04  1.044688462297990e-01  9.960967611845383e-01 -3.971877772427240e-02  3.582501252895263e-03 -7.874532836007392e-02  2.686249337244789e-01 -2.645326935577291e-02 -2.492939895576476e-01
2 1 2 -4.557284968161610e-01 -9.902587714484024e-01  7.154014764831022e-01 0 0 0 -8.206437916504873e-02  2.347870528516492e-01 -2.030891803562457e-01  9.368544362019984e-01  1.061605258568130e-01  6.644644045475730e-02  3.265250046617156e-01 -1.280574793116737e-01 -1.459233568511835e-02  4.889358400025944e-02
3 1 3 -1.097929953922819e-01 -1.245079317770190e+00  1.071765703267005e+00 0 0 0 -2.303973870770319e-01 -7.573562458613682e-02  1.478445110789093e-01  8.033387516942688e-01  1.481944342707671e-01  1.705116159589206e-01  5.510091183460932e-01  3.217299048472219e-01 -2.471391118760496e-01 -1.608130669107569e-01
4 1 4  2.823632879066050e-01 -1.283438128913932e+00  1.425774005467182e+00 0 0 0 -2.139139894413389e-01 -4.522592219025001e-01 -2.957836018081838e-02  5.510272147093636e-01  1.493419046166326e-01  1.207519668108889e-01  8.120867975077664e-01 -2.826380513187912e-01  2.346058497593014e-01  3.135377160288537e-01
5 1 1  6.222017980655897e-01 -1.030733884183785e+00  1.761992660672491e+00 0 0 0 -1.014790481765034e-01 -2.593035125189646e-01 -1.307961669579388e-01  2.455159277598984e-01  1.167950686055314e-01  8.130388373191857e-02  9.588902542291960e-01  8.938090029650826e-02 -4.885657180913605e-02  1.411130801258347e-01
6 1 2  7.897206967230975e-01 -6.680780466713437e-01  2.163631544365987e+00 0 0 0  2.094155657113997e-02  1.426316191559731e-01  2.490876233204601e-01 -4.663859609480981e-02  5.914546445296188e-02  1.940449092711873e-02  9.969704715390562e-01  6.080157942567396e-02 -2.621524694191320e-01  1.902993588194666e-01
7 1 3  7.153145027191579e-01 -4.019359224879891e-01  2.565643800795082e+00 0 0 0  1.020273578019797e-01  4.110143661653620e-02 -1.018692076885539e-02 -4.496561567445391e-01  1.145482768550344e-01 -7.894129725522098e-02  8.823017083509110e-01  2.142929515791524e-01  4.377871370341873e-01 -1.065362688675649e-01
8 1 4  4.889977883912617e-01 -3.046876655924581e-01  3.074722307597480e+00 0 0 0  3.902179057041872e-01 -3.629104614865413e-02  1.523411418035520e-01  7.619734121319045e-01 -1.254453312632361e-02  4.136093520102003e-02 -6.461643962119877e-01 -2.349761270040401e-02  1.220011964564462e-01 -1.911091136727265e-01
9 2 1  4.075607369106566e-01 -1.442657322480541e+00  3.056834139516022e+00 0 0 0  3.022881730672461e-02  3.189244197104118e-03 -1.002679714746319e-01 -2.303882331166874e-01  6.831479322600720e-01  6.806731181356845e-01 -1.300548766390700e-01 -9.620352191940808e-02 -9.787562650303424e-03  1.466746801845177e-01
10 2 2 -2.325340428927299e-02 -1.289381056722819e+00  2.717688748103702e+00 0 0 0  1.503877360725419e-01  1.019588947606953e-01 -5.642997921144916e-02 -2.260370716235433e-01  8.863491685880144e-01  3.857774031785021e-01 -1.202837844102048e-01 -3.350346581757612e-01 -3.946565224526471e-01 -1.579350726263664e-01