LAMMPS (27 Jun 2024)
KOKKOS mode with Kokkos version 4.3.1 is enabled (../kokkos.cpp:72)
Reading data file ...
  orthogonal box = (-2 -2 -4) to (2 2 4)
  1 by 1 by 2 MPI processor grid
  reading atoms ...
  2 atoms
  reading velocities ...
  2 velocities
  read_data CPU = 0.004 seconds
2 atoms in group all
2 atoms in group polymer

CITE-CITE-CITE-CITE-CITE-CITE-CITE-CITE-CITE-CITE-CITE-CITE-CITE

Your simulation uses code contributions which should be cited:
- Type Label Framework: https://doi.org/10.1021/acs.jpcb.3c08419
The log file lists these citations in BibTeX format.

CITE-CITE-CITE-CITE-CITE-CITE-CITE-CITE-CITE-CITE-CITE-CITE-CITE

Generated 0 of 0 mixed pair_coeff terms from geometric mixing rule
Neighbor list info ...
  update: every = 1 steps, delay = 0 steps, check = yes
  max neighbors/atom: 2000, page size: 100000
  master list distance cutoff = 2.6224615
  ghost atom cutoff = 2.6224615
  binsize = 1.3112308, bins = 4 4 7
  1 neighbor lists, perpetual/occasional/extra = 1 0 0
  (1) pair lj/cut/kk, perpetual
      attributes: half, newton on, kokkos_device
      pair build: half/bin/newton/kk/device
      stencil: half/bin/3d
      bin: kk/device
Proc 1: pack_exchange_kokkos() call start
Proc 1: pack_exchange_kokkos() call start
Proc 1: pack_exchange_kokkos() call start
Setting up Verlet run ...
  Unit style    : lj
  Current step  : 0
  Time step     : 0.001
Proc 0: pack_exchange_kokkos() call start
Proc 0: pack_exchange_kokkos() call start
Proc 0: pack_exchange_kokkos() call start
Proc 1: pack_border_kokkos() call start
Proc 1: pack_border_kokkos() call end
Proc 1: unpack_border_kokkos() call start
Proc 1: unpack_border_kokkos() call end
Proc 0: pack_border_kokkos() call start
Proc 1: pack_border_kokkos() call start
Proc 1: pack_border_kokkos() call end
Proc 1: unpack_border_kokkos() call start
Proc 1: unpack_border_kokkos() call end
Proc 0: pack_border_kokkos() call end
Proc 0: unpack_border_kokkos() call start
Proc 0: unpack_border_kokkos() call end
Proc 1: pack_border_kokkos() call start
Proc 1: pack_border_kokkos() call end
Proc 1: unpack_border_kokkos() call start
Proc 0: pack_border_kokkos() call start
Proc 0: pack_border_kokkos() call end
Proc 1: unpack_border_kokkos() call end
Proc 1: pack_border_kokkos() call start
Proc 1: pack_border_kokkos() call end
Proc 1: unpack_border_kokkos() call start
Proc 0: unpack_border_kokkos() call start
Proc 0: unpack_border_kokkos() call end
Proc 0: pack_border_kokkos() call start
Proc 1: unpack_border_kokkos() call end
Proc 1: pack_border_kokkos() call start
Proc 1: pack_border_kokkos() call end
Proc 0: pack_border_kokkos() call end
Proc 0: unpack_border_kokkos() call start
Proc 0: unpack_border_kokkos() call end
Proc 0: pack_border_kokkos() call start
Proc 0: pack_border_kokkos() call end
Proc 0: unpack_border_kokkos() call start
Proc 0: unpack_border_kokkos() call end
Proc 0: pack_border_kokkos() call start
Proc 0: pack_border_kokkos() call end
Proc 1: unpack_border_kokkos() call start
Proc 1: unpack_border_kokkos() call end
Proc 1: pack_border_kokkos() call start
Proc 1: pack_border_kokkos() call end
Proc 0: unpack_border_kokkos() call start
Proc 0: unpack_border_kokkos() call end
Proc 0: pack_border_kokkos() call start
Proc 0: pack_border_kokkos() call end
Proc 0: unpack_border_kokkos() call start
Proc 0: unpack_border_kokkos() call end
Proc 1: unpack_border_kokkos() call start
Proc 1: unpack_border_kokkos() call end
0  ekin = 100 | epot = 0 | etot = 100
Per MPI rank memory allocation (min/avg/max) = 3.487 | 3.487 | 3.487 Mbytes
   Step          Temp          E_pair         E_mol          TotEng         Press     
         0   66.666667      0              0              50             0.52083333   
Proc 0: pack_comm_kokkos() call start
Proc 0: pack_comm_kokkos() call end
Proc 1: pack_comm_kokkos() call start
Proc 1: pack_comm_kokkos() call end
Proc 1: pack_comm_kokkos() call start
Proc 0: pack_comm_kokkos() call start
Proc 0: pack_comm_kokkos() call end
Proc 1: pack_comm_kokkos() call end
1  ekin = 100 | epot = 0 | etot = 100
Proc 0: pack_comm_kokkos() call start
Proc 0: pack_comm_kokkos() call end
Proc 1: pack_comm_kokkos() call start
Proc 1: pack_comm_kokkos() call end
Proc 1: pack_comm_kokkos() call start
Proc 1: pack_comm_kokkos() call end
Proc 0: pack_comm_kokkos() call start
Proc 0: pack_comm_kokkos() call end
2  ekin = 100 | epot = 0 | etot = 100
Proc 0: pack_comm_kokkos() call start
Proc 0: pack_comm_kokkos() call end
Proc 0: pack_comm_kokkos() call start
Proc 0: pack_comm_kokkos() call end
Proc 1: pack_comm_kokkos() call start
Proc 1: pack_comm_kokkos() call end
Proc 1: pack_comm_kokkos() call start
Proc 1: pack_comm_kokkos() call end
3  ekin = 100 | epot = 0 | etot = 100
Proc 0: pack_comm_kokkos() call start
Proc 0: pack_comm_kokkos() call end
Proc 1: pack_comm_kokkos() call start
Proc 1: pack_comm_kokkos() call end
Proc 1: pack_comm_kokkos() call start
Proc 1: pack_comm_kokkos() call end
Proc 0: pack_comm_kokkos() call start
Proc 0: pack_comm_kokkos() call end
4  ekin = 100 | epot = 0 | etot = 100
Proc 0: pack_comm_kokkos() call start
Proc 0: pack_comm_kokkos() call end
Proc 1: pack_comm_kokkos() call start
Proc 1: pack_comm_kokkos() call end
Proc 1: pack_comm_kokkos() call start
Proc 1: pack_comm_kokkos() call end
Proc 0: pack_comm_kokkos() call start
Proc 0: pack_comm_kokkos() call end
5  ekin = 100 | epot = 0 | etot = 100
Proc 0: pack_comm_kokkos() call start
Proc 0: pack_comm_kokkos() call end
Proc 1: pack_comm_kokkos() call start
Proc 1: pack_comm_kokkos() call end
Proc 1: pack_comm_kokkos() call start
Proc 1: pack_comm_kokkos() call end
Proc 0: pack_comm_kokkos() call start
Proc 0: pack_comm_kokkos() call end
6  ekin = 100 | epot = 0 | etot = 100
Proc 0: pack_comm_kokkos() call start
Proc 0: pack_comm_kokkos() call end
Proc 1: pack_comm_kokkos() call start
Proc 1: pack_comm_kokkos() call end
Proc 1: pack_comm_kokkos() call start
Proc 1: pack_comm_kokkos() call end
Proc 0: pack_comm_kokkos() call start
Proc 0: pack_comm_kokkos() call end
7  ekin = 100 | epot = 0 | etot = 100
Proc 0: pack_comm_kokkos() call start
Proc 0: pack_comm_kokkos() call end
Proc 1: pack_comm_kokkos() call start
Proc 1: pack_comm_kokkos() call end
Proc 1: pack_comm_kokkos() call start
Proc 1: pack_comm_kokkos() call end
Proc 0: pack_comm_kokkos() call start
Proc 0: pack_comm_kokkos() call end
8  ekin = 100 | epot = 0 | etot = 100
Proc 0: pack_comm_kokkos() call start
Proc 0: pack_comm_kokkos() call end
Proc 1: pack_comm_kokkos() call start
Proc 1: pack_comm_kokkos() call end
Proc 1: pack_comm_kokkos() call start
Proc 1: pack_comm_kokkos() call end
Proc 0: pack_comm_kokkos() call start
Proc 0: pack_comm_kokkos() call end
9  ekin = 100 | epot = 0 | etot = 100
Proc 0: pack_comm_kokkos() call start
Proc 0: pack_comm_kokkos() call end
Proc 1: pack_comm_kokkos() call start
Proc 1: pack_comm_kokkos() call end
Proc 1: pack_comm_kokkos() call start
Proc 1: pack_comm_kokkos() call end
Proc 0: pack_comm_kokkos() call start
Proc 0: pack_comm_kokkos() call end
10  ekin = 100 | epot = 0 | etot = 100
Proc 0: pack_comm_kokkos() call start
Proc 0: pack_comm_kokkos() call end
Proc 1: pack_comm_kokkos() call start
Proc 1: pack_comm_kokkos() call end
Proc 1: pack_comm_kokkos() call start
Proc 1: pack_comm_kokkos() call end
Proc 0: pack_comm_kokkos() call start
Proc 0: pack_comm_kokkos() call end
11  ekin = 100 | epot = 0 | etot = 100
Proc 0: pack_comm_kokkos() call start
Proc 0: pack_comm_kokkos() call end
Proc 1: pack_comm_kokkos() call start
Proc 1: pack_comm_kokkos() call end
Proc 1: pack_comm_kokkos() call start
Proc 1: pack_comm_kokkos() call end
Proc 0: pack_comm_kokkos() call start
Proc 0: pack_comm_kokkos() call end
12  ekin = 100 | epot = 0 | etot = 100
Proc 0: pack_comm_kokkos() call start
Proc 0: pack_comm_kokkos() call end
Proc 1: pack_comm_kokkos() call start
Proc 1: pack_comm_kokkos() call end
Proc 1: pack_comm_kokkos() call start
Proc 1: pack_comm_kokkos() call end
Proc 0: pack_comm_kokkos() call start
Proc 0: pack_comm_kokkos() call end
13  ekin = 100 | epot = 0 | etot = 100
Proc 0: pack_comm_kokkos() call start
Proc 0: pack_comm_kokkos() call end
Proc 1: pack_comm_kokkos() call start
Proc 1: pack_comm_kokkos() call end
Proc 1: pack_comm_kokkos() call start
Proc 1: pack_comm_kokkos() call end
Proc 0: pack_comm_kokkos() call start
Proc 0: pack_comm_kokkos() call end
14  ekin = 100 | epot = 0 | etot = 100
Proc 0: pack_comm_kokkos() call start
Proc 0: pack_comm_kokkos() call end
Proc 1: pack_comm_kokkos() call start
Proc 1: pack_comm_kokkos() call end
Proc 1: pack_comm_kokkos() call start
Proc 1: pack_comm_kokkos() call end
Proc 0: pack_comm_kokkos() call start
Proc 0: pack_comm_kokkos() call end
15  ekin = 100 | epot = 0 | etot = 100
Proc 0: pack_comm_kokkos() call start
Proc 0: pack_comm_kokkos() call end
Proc 0: pack_comm_kokkos() call start
Proc 1: pack_comm_kokkos() call start
Proc 1: pack_comm_kokkos() call end
Proc 1: pack_comm_kokkos() call start
Proc 1: pack_comm_kokkos() call end
Proc 0: pack_comm_kokkos() call end
16  ekin = 100 | epot = 0 | etot = 100
Proc 0: pack_comm_kokkos() call start
Proc 0: pack_comm_kokkos() call end
Proc 0: pack_comm_kokkos() call start
Proc 1: pack_comm_kokkos() call start
Proc 1: pack_comm_kokkos() call end
Proc 1: pack_comm_kokkos() call start
Proc 1: pack_comm_kokkos() call end
Proc 0: pack_comm_kokkos() call end
17  ekin = 100 | epot = 0 | etot = 100
Proc 0: pack_comm_kokkos() call start
Proc 0: pack_comm_kokkos() call end
Proc 0: pack_comm_kokkos() call start
Proc 1: pack_comm_kokkos() call start
Proc 1: pack_comm_kokkos() call end
Proc 1: pack_comm_kokkos() call start
Proc 1: pack_comm_kokkos() call end
Proc 0: pack_comm_kokkos() call end
18  ekin = 100 | epot = 0 | etot = 100
Proc 0: pack_comm_kokkos() call start
Proc 0: pack_comm_kokkos() call end
Proc 0: pack_comm_kokkos() call start
Proc 1: pack_comm_kokkos() call start
Proc 1: pack_comm_kokkos() call end
Proc 1: pack_comm_kokkos() call start
Proc 1: pack_comm_kokkos() call end
Proc 0: pack_comm_kokkos() call end
19  ekin = 100 | epot = 0 | etot = 100
Proc 0: pack_comm_kokkos() call start
Proc 0: pack_comm_kokkos() call end
Proc 0: pack_comm_kokkos() call start
Proc 1: pack_comm_kokkos() call start
Proc 1: pack_comm_kokkos() call end
Proc 1: pack_comm_kokkos() call start
Proc 1: pack_comm_kokkos() call end
Proc 0: pack_comm_kokkos() call end
20  ekin = 100 | epot = 0 | etot = 100
Proc 0: pack_comm_kokkos() call start
Proc 0: pack_comm_kokkos() call end
Proc 1: pack_comm_kokkos() call start
Proc 1: pack_comm_kokkos() call end
Proc 1: pack_comm_kokkos() call start
Proc 1: pack_comm_kokkos() call end
Proc 0: pack_comm_kokkos() call start
Proc 0: pack_comm_kokkos() call end
21  ekin = 100 | epot = 0 | etot = 100
Proc 0: pack_comm_kokkos() call start
Proc 0: pack_comm_kokkos() call end
Proc 1: pack_comm_kokkos() call start
Proc 1: pack_comm_kokkos() call end
Proc 1: pack_comm_kokkos() call start
Proc 1: pack_comm_kokkos() call end
Proc 0: pack_comm_kokkos() call start
Proc 0: pack_comm_kokkos() call end
22  ekin = 100 | epot = 0 | etot = 100
Proc 0: pack_comm_kokkos() call start
Proc 0: pack_comm_kokkos() call end
Proc 1: pack_comm_kokkos() call start
Proc 1: pack_comm_kokkos() call end
Proc 1: pack_comm_kokkos() call start
Proc 1: pack_comm_kokkos() call end
Proc 0: pack_comm_kokkos() call start
Proc 0: pack_comm_kokkos() call end
23  ekin = 100 | epot = 0 | etot = 100
Proc 0: pack_comm_kokkos() call start
Proc 0: pack_comm_kokkos() call end
Proc 0: pack_comm_kokkos() call start
Proc 0: pack_comm_kokkos() call end
Proc 1: pack_comm_kokkos() call start
Proc 1: pack_comm_kokkos() call end
Proc 1: pack_comm_kokkos() call start
Proc 1: pack_comm_kokkos() call end
24  ekin = 100 | epot = 0 | etot = 100
Proc 0: pack_comm_kokkos() call start
Proc 0: pack_comm_kokkos() call end
Proc 0: pack_comm_kokkos() call start
Proc 1: pack_comm_kokkos() call start
Proc 1: pack_comm_kokkos() call end
Proc 1: pack_comm_kokkos() call start
Proc 1: pack_comm_kokkos() call end
Proc 0: pack_comm_kokkos() call end
25  ekin = 100 | epot = 0 | etot = 100
Proc 0: pack_comm_kokkos() call start
Proc 1: pack_comm_kokkos() call start
Proc 1: pack_comm_kokkos() call end
Proc 0: pack_comm_kokkos() call end
Proc 0: pack_comm_kokkos() call start
Proc 1: pack_comm_kokkos() call start
Proc 1: pack_comm_kokkos() call end
Proc 0: pack_comm_kokkos() call end
26  ekin = 100 | epot = 0 | etot = 100
Proc 0: pack_comm_kokkos() call start
Proc 1: pack_comm_kokkos() call start
Proc 1: pack_comm_kokkos() call end
Proc 0: pack_comm_kokkos() call end
Proc 0: pack_comm_kokkos() call start
Proc 1: pack_comm_kokkos() call start
Proc 1: pack_comm_kokkos() call end
Proc 0: pack_comm_kokkos() call end
27  ekin = 100 | epot = 0 | etot = 100
Proc 0: pack_comm_kokkos() call start
Proc 1: pack_comm_kokkos() call start
Proc 1: pack_comm_kokkos() call end
Proc 0: pack_comm_kokkos() call end
Proc 0: pack_comm_kokkos() call start
Proc 1: pack_comm_kokkos() call start
Proc 1: pack_comm_kokkos() call end
Proc 0: pack_comm_kokkos() call end
28  ekin = 100 | epot = 0 | etot = 100
Proc 0: pack_comm_kokkos() call start
Proc 1: pack_comm_kokkos() call start
Proc 1: pack_comm_kokkos() call end
Proc 1: pack_comm_kokkos() call start
Proc 0: pack_comm_kokkos() call end
Proc 0: pack_comm_kokkos() call start
Proc 1: pack_comm_kokkos() call end
Proc 0: pack_comm_kokkos() call end
29  ekin = 100 | epot = 0 | etot = 100
Proc 0: pack_comm_kokkos() call start
Proc 0: pack_comm_kokkos() call end
Proc 1: pack_comm_kokkos() call start
Proc 1: pack_comm_kokkos() call end
Proc 1: pack_comm_kokkos() call start
Proc 0: pack_comm_kokkos() call start
Proc 0: pack_comm_kokkos() call end
Proc 1: pack_comm_kokkos() call end
30  ekin = 100 | epot = 0 | etot = 100
Proc 0: pack_comm_kokkos() call start
Proc 0: pack_comm_kokkos() call end
Proc 1: pack_comm_kokkos() call start
Proc 1: pack_comm_kokkos() call end
Proc 1: pack_comm_kokkos() call start
Proc 1: pack_comm_kokkos() call end
Proc 0: pack_comm_kokkos() call start
Proc 0: pack_comm_kokkos() call end
31  ekin = 100 | epot = 0 | etot = 100
Proc 0: pack_comm_kokkos() call start
Proc 0: pack_comm_kokkos() call end
Proc 1: pack_comm_kokkos() call start
Proc 1: pack_comm_kokkos() call end
Proc 1: pack_comm_kokkos() call start
Proc 0: pack_comm_kokkos() call start
Proc 0: pack_comm_kokkos() call end
Proc 1: pack_comm_kokkos() call end
32  ekin = 100 | epot = 0 | etot = 100
Proc 0: pack_comm_kokkos() call start
Proc 0: pack_comm_kokkos() call end
Proc 1: pack_comm_kokkos() call start
Proc 1: pack_comm_kokkos() call end
Proc 1: pack_comm_kokkos() call start
Proc 1: pack_comm_kokkos() call end
Proc 0: pack_comm_kokkos() call start
Proc 0: pack_comm_kokkos() call end
33  ekin = 100 | epot = 0 | etot = 100
Proc 0: pack_comm_kokkos() call start
Proc 0: pack_comm_kokkos() call end
Proc 1: pack_comm_kokkos() call start
Proc 1: pack_comm_kokkos() call end
Proc 1: pack_comm_kokkos() call start
Proc 1: pack_comm_kokkos() call end
Proc 0: pack_comm_kokkos() call start
Proc 0: pack_comm_kokkos() call end
34  ekin = 100 | epot = 0 | etot = 100
Proc 0: pack_comm_kokkos() call start
Proc 0: pack_comm_kokkos() call end
Proc 1: pack_comm_kokkos() call start
Proc 1: pack_comm_kokkos() call end
Proc 1: pack_comm_kokkos() call start
Proc 1: pack_comm_kokkos() call end
Proc 0: pack_comm_kokkos() call start
Proc 0: pack_comm_kokkos() call end
35  ekin = 100 | epot = 0 | etot = 100
Proc 0: pack_comm_kokkos() call start
Proc 0: pack_comm_kokkos() call end
Proc 1: pack_comm_kokkos() call start
Proc 1: pack_comm_kokkos() call end
Proc 1: pack_comm_kokkos() call start
Proc 1: pack_comm_kokkos() call end
Proc 0: pack_comm_kokkos() call start
Proc 0: pack_comm_kokkos() call end
36  ekin = 100 | epot = 0 | etot = 100
Proc 0: pack_comm_kokkos() call start
Proc 0: pack_comm_kokkos() call end
Proc 1: pack_comm_kokkos() call start
Proc 1: pack_comm_kokkos() call end
Proc 1: pack_comm_kokkos() call start
Proc 1: pack_comm_kokkos() call end
Proc 0: pack_comm_kokkos() call start
Proc 0: pack_comm_kokkos() call end
37  ekin = 100 | epot = 0 | etot = 100
Proc 0: pack_comm_kokkos() call start
Proc 0: pack_comm_kokkos() call end
Proc 1: pack_comm_kokkos() call start
Proc 1: pack_comm_kokkos() call end
Proc 1: pack_comm_kokkos() call start
Proc 1: pack_comm_kokkos() call end
Proc 0: pack_comm_kokkos() call start
Proc 0: pack_comm_kokkos() call end
38  ekin = 100 | epot = 0 | etot = 100
Proc 0: pack_comm_kokkos() call start
Proc 0: pack_comm_kokkos() call end
Proc 1: pack_comm_kokkos() call start
Proc 1: pack_comm_kokkos() call end
Proc 1: pack_comm_kokkos() call start
Proc 1: pack_comm_kokkos() call end
Proc 0: pack_comm_kokkos() call start
Proc 0: pack_comm_kokkos() call end
39  ekin = 100 | epot = 0 | etot = 100
Proc 0: pack_comm_kokkos() call start
Proc 0: pack_comm_kokkos() call end
Proc 1: pack_comm_kokkos() call start
Proc 1: pack_comm_kokkos() call end
Proc 1: pack_comm_kokkos() call start
Proc 1: pack_comm_kokkos() call end
Proc 0: pack_comm_kokkos() call start
Proc 0: pack_comm_kokkos() call end
40  ekin = 100 | epot = 0 | etot = 100
Proc 0: pack_comm_kokkos() call start
Proc 0: pack_comm_kokkos() call end
Proc 1: pack_comm_kokkos() call start
Proc 1: pack_comm_kokkos() call end
Proc 1: pack_comm_kokkos() call start
Proc 1: pack_comm_kokkos() call end
Proc 0: pack_comm_kokkos() call start
Proc 0: pack_comm_kokkos() call end
41  ekin = 100 | epot = 0 | etot = 100
Proc 0: pack_comm_kokkos() call start
Proc 0: pack_comm_kokkos() call end
Proc 1: pack_comm_kokkos() call start
Proc 1: pack_comm_kokkos() call end
Proc 1: pack_comm_kokkos() call start
Proc 1: pack_comm_kokkos() call end
Proc 0: pack_comm_kokkos() call start
Proc 0: pack_comm_kokkos() call end
42  ekin = 100 | epot = 0 | etot = 100
Proc 0: pack_comm_kokkos() call start
Proc 0: pack_comm_kokkos() call end
Proc 1: pack_comm_kokkos() call start
Proc 1: pack_comm_kokkos() call end
Proc 1: pack_comm_kokkos() call start
Proc 1: pack_comm_kokkos() call end
Proc 0: pack_comm_kokkos() call start
Proc 0: pack_comm_kokkos() call end
43  ekin = 100 | epot = 0 | etot = 100
Proc 0: pack_comm_kokkos() call start
Proc 0: pack_comm_kokkos() call end
Proc 1: pack_comm_kokkos() call start
Proc 1: pack_comm_kokkos() call end
Proc 1: pack_comm_kokkos() call start
Proc 1: pack_comm_kokkos() call end
Proc 0: pack_comm_kokkos() call start
Proc 0: pack_comm_kokkos() call end
44  ekin = 100 | epot = 0 | etot = 100
Proc 0: pack_comm_kokkos() call start
Proc 0: pack_comm_kokkos() call end
Proc 1: pack_comm_kokkos() call start
Proc 1: pack_comm_kokkos() call end
Proc 1: pack_comm_kokkos() call start
Proc 1: pack_comm_kokkos() call end
Proc 0: pack_comm_kokkos() call start
Proc 0: pack_comm_kokkos() call end
45  ekin = 100 | epot = 0 | etot = 100
Proc 0: pack_comm_kokkos() call start
Proc 0: pack_comm_kokkos() call end
Proc 1: pack_comm_kokkos() call start
Proc 1: pack_comm_kokkos() call end
Proc 1: pack_comm_kokkos() call start
Proc 1: pack_comm_kokkos() call end
Proc 0: pack_comm_kokkos() call start
Proc 0: pack_comm_kokkos() call end
46  ekin = 100 | epot = 0 | etot = 100
Proc 0: pack_comm_kokkos() call start
Proc 0: pack_comm_kokkos() call end
Proc 0: pack_comm_kokkos() call start
Proc 1: pack_comm_kokkos() call start
Proc 1: pack_comm_kokkos() call end
Proc 1: pack_comm_kokkos() call start
Proc 1: pack_comm_kokkos() call end
Proc 0: pack_comm_kokkos() call end
47  ekin = 100 | epot = 0 | etot = 100
Proc 0: pack_comm_kokkos() call start
Proc 0: pack_comm_kokkos() call end
Proc 1: pack_comm_kokkos() call start
Proc 1: pack_comm_kokkos() call end
Proc 1: pack_comm_kokkos() call start
Proc 1: pack_comm_kokkos() call end
Proc 0: pack_comm_kokkos() call start
Proc 0: pack_comm_kokkos() call end
48  ekin = 100 | epot = 0 | etot = 100
Proc 0: pack_comm_kokkos() call start
Proc 0: pack_comm_kokkos() call end
Proc 1: pack_comm_kokkos() call start
Proc 1: pack_comm_kokkos() call end
Proc 1: pack_comm_kokkos() call start
Proc 1: pack_comm_kokkos() call end
Proc 0: pack_comm_kokkos() call start
Proc 0: pack_comm_kokkos() call end
49  ekin = 100 | epot = 0 | etot = 100
Proc 0: pack_comm_kokkos() call start
Proc 0: pack_comm_kokkos() call end
Proc 1: pack_comm_kokkos() call start
Proc 1: pack_comm_kokkos() call end
Proc 1: pack_comm_kokkos() call start
Proc 1: pack_comm_kokkos() call end
Proc 0: pack_comm_kokkos() call start
Proc 0: pack_comm_kokkos() call end
50  ekin = 100 | epot = 0 | etot = 100
Proc 0: pack_comm_kokkos() call start
Proc 0: pack_comm_kokkos() call end
Proc 1: pack_comm_kokkos() call start
Proc 1: pack_comm_kokkos() call end
Proc 1: pack_comm_kokkos() call start
Proc 1: pack_comm_kokkos() call end
Proc 0: pack_comm_kokkos() call start
Proc 0: pack_comm_kokkos() call end
51  ekin = 100 | epot = 0 | etot = 100
Proc 0: pack_comm_kokkos() call start
Proc 0: pack_comm_kokkos() call end
Proc 1: pack_comm_kokkos() call start
Proc 1: pack_comm_kokkos() call end
Proc 1: pack_comm_kokkos() call start
Proc 1: pack_comm_kokkos() call end
Proc 0: pack_comm_kokkos() call start
Proc 0: pack_comm_kokkos() call end
52  ekin = 100 | epot = 0 | etot = 100
Proc 0: pack_comm_kokkos() call start
Proc 0: pack_comm_kokkos() call end
Proc 1: pack_comm_kokkos() call start
Proc 1: pack_comm_kokkos() call end
Proc 1: pack_comm_kokkos() call start
Proc 1: pack_comm_kokkos() call end
Proc 0: pack_comm_kokkos() call start
Proc 0: pack_comm_kokkos() call end
53  ekin = 100 | epot = 0 | etot = 100
Proc 0: pack_comm_kokkos() call start
Proc 0: pack_comm_kokkos() call end
Proc 1: pack_comm_kokkos() call start
Proc 1: pack_comm_kokkos() call end
Proc 1: pack_comm_kokkos() call start
Proc 1: pack_comm_kokkos() call end
Proc 0: pack_comm_kokkos() call start
Proc 0: pack_comm_kokkos() call end
54  ekin = 100 | epot = 0 | etot = 100
Proc 0: pack_comm_kokkos() call start
Proc 0: pack_comm_kokkos() call end
Proc 1: pack_comm_kokkos() call start
Proc 1: pack_comm_kokkos() call end
Proc 1: pack_comm_kokkos() call start
Proc 1: pack_comm_kokkos() call end
Proc 0: pack_comm_kokkos() call start
Proc 0: pack_comm_kokkos() call end
55  ekin = 100 | epot = 0 | etot = 100
Proc 0: pack_comm_kokkos() call start
Proc 0: pack_comm_kokkos() call end
Proc 1: pack_comm_kokkos() call start
Proc 1: pack_comm_kokkos() call end
Proc 1: pack_comm_kokkos() call start
Proc 1: pack_comm_kokkos() call end
Proc 0: pack_comm_kokkos() call start
Proc 0: pack_comm_kokkos() call end
56  ekin = 100 | epot = 0 | etot = 100
Proc 0: pack_comm_kokkos() call start
Proc 0: pack_comm_kokkos() call end
Proc 1: pack_comm_kokkos() call start
Proc 1: pack_comm_kokkos() call end
Proc 1: pack_comm_kokkos() call start
Proc 1: pack_comm_kokkos() call end
Proc 0: pack_comm_kokkos() call start
Proc 0: pack_comm_kokkos() call end
57  ekin = 100 | epot = 0 | etot = 100
Proc 0: pack_comm_kokkos() call start
Proc 0: pack_comm_kokkos() call end
Proc 1: pack_comm_kokkos() call start
Proc 1: pack_comm_kokkos() call end
Proc 1: pack_comm_kokkos() call start
Proc 1: pack_comm_kokkos() call end
Proc 0: pack_comm_kokkos() call start
Proc 0: pack_comm_kokkos() call end
58  ekin = 100 | epot = 0 | etot = 100
Proc 0: pack_comm_kokkos() call start
Proc 0: pack_comm_kokkos() call end
Proc 1: pack_comm_kokkos() call start
Proc 1: pack_comm_kokkos() call end
Proc 1: pack_comm_kokkos() call start
Proc 1: pack_comm_kokkos() call end
Proc 0: pack_comm_kokkos() call start
Proc 0: pack_comm_kokkos() call end
59  ekin = 100 | epot = 0 | etot = 100
Proc 0: pack_comm_kokkos() call start
Proc 0: pack_comm_kokkos() call end
Proc 1: pack_comm_kokkos() call start
Proc 1: pack_comm_kokkos() call end
Proc 1: pack_comm_kokkos() call start
Proc 1: pack_comm_kokkos() call end
Proc 0: pack_comm_kokkos() call start
Proc 0: pack_comm_kokkos() call end
60  ekin = 100 | epot = 0 | etot = 100
Proc 0: pack_comm_kokkos() call start
Proc 0: pack_comm_kokkos() call end
Proc 1: pack_comm_kokkos() call start
Proc 1: pack_comm_kokkos() call end
Proc 1: pack_comm_kokkos() call start
Proc 1: pack_comm_kokkos() call end
Proc 0: pack_comm_kokkos() call start
Proc 0: pack_comm_kokkos() call end
61  ekin = 100 | epot = 0 | etot = 100
Proc 0: pack_comm_kokkos() call start
Proc 0: pack_comm_kokkos() call end
Proc 1: pack_comm_kokkos() call start
Proc 1: pack_comm_kokkos() call end
Proc 1: pack_comm_kokkos() call start
Proc 1: pack_comm_kokkos() call end
Proc 0: pack_comm_kokkos() call start
Proc 0: pack_comm_kokkos() call end
62  ekin = 100 | epot = 0 | etot = 100
Proc 0: pack_comm_kokkos() call start
Proc 0: pack_comm_kokkos() call end
Proc 1: pack_comm_kokkos() call start
Proc 1: pack_comm_kokkos() call end
Proc 1: pack_comm_kokkos() call start
Proc 1: pack_comm_kokkos() call end
Proc 0: pack_comm_kokkos() call start
Proc 0: pack_comm_kokkos() call end
63  ekin = 100 | epot = 0 | etot = 100
Proc 0: pack_comm_kokkos() call start
Proc 0: pack_comm_kokkos() call end
Proc 1: pack_comm_kokkos() call start
Proc 1: pack_comm_kokkos() call end
Proc 1: pack_comm_kokkos() call start
Proc 1: pack_comm_kokkos() call end
Proc 0: pack_comm_kokkos() call start
Proc 0: pack_comm_kokkos() call end
64  ekin = 100 | epot = 0 | etot = 100
Proc 0: pack_comm_kokkos() call start
Proc 0: pack_comm_kokkos() call end
Proc 1: pack_comm_kokkos() call start
Proc 1: pack_comm_kokkos() call end
Proc 1: pack_comm_kokkos() call start
Proc 1: pack_comm_kokkos() call end
Proc 0: pack_comm_kokkos() call start
Proc 0: pack_comm_kokkos() call end
65  ekin = 100 | epot = 0 | etot = 100
Proc 0: pack_comm_kokkos() call start
Proc 0: pack_comm_kokkos() call end
Proc 1: pack_comm_kokkos() call start
Proc 1: pack_comm_kokkos() call end
Proc 1: pack_comm_kokkos() call start
Proc 1: pack_comm_kokkos() call end
Proc 0: pack_comm_kokkos() call start
Proc 0: pack_comm_kokkos() call end
66  ekin = 100 | epot = 0 | etot = 100
Proc 0: pack_comm_kokkos() call start
Proc 0: pack_comm_kokkos() call end
Proc 0: pack_comm_kokkos() call start
Proc 1: pack_comm_kokkos() call start
Proc 1: pack_comm_kokkos() call end
Proc 1: pack_comm_kokkos() call start
Proc 1: pack_comm_kokkos() call end
Proc 0: pack_comm_kokkos() call end
67  ekin = 100 | epot = 0 | etot = 100
Proc 0: pack_comm_kokkos() call start
Proc 0: pack_comm_kokkos() call end
Proc 0: pack_comm_kokkos() call start
Proc 1: pack_comm_kokkos() call start
Proc 1: pack_comm_kokkos() call end
Proc 1: pack_comm_kokkos() call start
Proc 1: pack_comm_kokkos() call end
Proc 0: pack_comm_kokkos() call end
68  ekin = 100 | epot = 0 | etot = 100
Proc 0: pack_comm_kokkos() call start
Proc 0: pack_comm_kokkos() call end
Proc 1: pack_comm_kokkos() call start
Proc 1: pack_comm_kokkos() call end
Proc 1: pack_comm_kokkos() call start
Proc 1: pack_comm_kokkos() call end
Proc 0: pack_comm_kokkos() call start
Proc 0: pack_comm_kokkos() call end
69  ekin = 100 | epot = 0 | etot = 100
Proc 0: pack_comm_kokkos() call start
Proc 0: pack_comm_kokkos() call end
Proc 1: pack_comm_kokkos() call start
Proc 1: pack_comm_kokkos() call end
Proc 1: pack_comm_kokkos() call start
Proc 1: pack_comm_kokkos() call end
Proc 0: pack_comm_kokkos() call start
Proc 0: pack_comm_kokkos() call end
70  ekin = 100 | epot = 0 | etot = 100
Proc 0: pack_comm_kokkos() call start
Proc 0: pack_comm_kokkos() call end
Proc 1: pack_comm_kokkos() call start
Proc 1: pack_comm_kokkos() call end
Proc 1: pack_comm_kokkos() call start
Proc 1: pack_comm_kokkos() call end
Proc 0: pack_comm_kokkos() call start
Proc 0: pack_comm_kokkos() call end
71  ekin = 100 | epot = 0 | etot = 100
Proc 0: pack_comm_kokkos() call start
Proc 0: pack_comm_kokkos() call end
Proc 0: pack_comm_kokkos() call start
Proc 1: pack_comm_kokkos() call start
Proc 1: pack_comm_kokkos() call end
Proc 1: pack_comm_kokkos() call start
Proc 1: pack_comm_kokkos() call end
Proc 0: pack_comm_kokkos() call end
72  ekin = 100 | epot = 0 | etot = 100
Proc 0: pack_comm_kokkos() call start
Proc 0: pack_comm_kokkos() call end
Proc 0: pack_comm_kokkos() call start
Proc 1: pack_comm_kokkos() call start
Proc 1: pack_comm_kokkos() call end
Proc 1: pack_comm_kokkos() call start
Proc 1: pack_comm_kokkos() call end
Proc 0: pack_comm_kokkos() call end
73  ekin = 100 | epot = 0 | etot = 100
Proc 0: pack_comm_kokkos() call start
Proc 0: pack_comm_kokkos() call end
Proc 1: pack_comm_kokkos() call start
Proc 1: pack_comm_kokkos() call end
Proc 1: pack_comm_kokkos() call start
Proc 1: pack_comm_kokkos() call end
Proc 0: pack_comm_kokkos() call start
Proc 0: pack_comm_kokkos() call end
74  ekin = 100 | epot = 0 | etot = 100
Proc 0: pack_exchange_kokkos() call start
Proc 0: pack_exchange_kokkos() call start
Proc 1: pack_exchange_kokkos() call start
Proc 1: pack_exchange_kokkos() call start
Proc 0: pack_exchange_kokkos() call start
Proc 1: pack_exchange_kokkos() call start
Proc 0: pack_border_kokkos() call start
Proc 0: pack_border_kokkos() call end
Proc 0: unpack_border_kokkos() call start
Proc 1: pack_border_kokkos() call start
Proc 1: pack_border_kokkos() call end
Proc 1: unpack_border_kokkos() call start
Proc 1: unpack_border_kokkos() call end
Proc 0: unpack_border_kokkos() call end
Proc 0: pack_border_kokkos() call start
Proc 0: pack_border_kokkos() call end
Proc 0: unpack_border_kokkos() call start
Proc 0: unpack_border_kokkos() call end
Proc 0: pack_border_kokkos() call start
Proc 1: pack_border_kokkos() call start
Proc 1: pack_border_kokkos() call end
Proc 1: unpack_border_kokkos() call start
Proc 1: unpack_border_kokkos() call end
Proc 1: pack_border_kokkos() call start
Proc 0: pack_border_kokkos() call end
Proc 0: unpack_border_kokkos() call start
Proc 0: unpack_border_kokkos() call end
Proc 0: pack_border_kokkos() call start
Proc 0: pack_border_kokkos() call end
Proc 0: unpack_border_kokkos() call start
Proc 0: unpack_border_kokkos() call end
Proc 1: pack_border_kokkos() call end
Proc 1: unpack_border_kokkos() call start
Proc 1: unpack_border_kokkos() call end
Proc 1: pack_border_kokkos() call start
Proc 1: pack_border_kokkos() call end
Proc 1: unpack_border_kokkos() call start
Proc 1: unpack_border_kokkos() call end
Proc 0: pack_border_kokkos() call start
Proc 0: pack_border_kokkos() call end
Proc 1: pack_border_kokkos() call start
Proc 1: pack_border_kokkos() call end
Proc 0: unpack_border_kokkos() call start
Proc 0: unpack_border_kokkos() call end
Proc 1: unpack_border_kokkos() call start
Proc 1: unpack_border_kokkos() call end
Proc 1: pack_border_kokkos() call start
Proc 1: pack_border_kokkos() call end
Proc 0: pack_border_kokkos() call start
Proc 0: pack_border_kokkos() call end
Proc 0: unpack_border_kokkos() call start
Proc 0: unpack_border_kokkos() call end
Proc 1: unpack_border_kokkos() call start
Proc 1: unpack_border_kokkos() call end
75  ekin = 100 | epot = 0 | etot = 100
Proc 0: pack_comm_kokkos() call start
Proc 0: pack_comm_kokkos() call end
Proc 0: pack_comm_kokkos() call start
Proc 1: pack_comm_kokkos() call start
Proc 1: pack_comm_kokkos() call end
Proc 1: pack_comm_kokkos() call start
Proc 1: pack_comm_kokkos() call end
Proc 0: pack_comm_kokkos() call end
76  ekin = 100 | epot = 0 | etot = 100
Proc 0: pack_comm_kokkos() call start
Proc 0: pack_comm_kokkos() call end
Proc 1: pack_comm_kokkos() call start
Proc 1: pack_comm_kokkos() call end
Proc 1: pack_comm_kokkos() call start
Proc 1: pack_comm_kokkos() call end
Proc 0: pack_comm_kokkos() call start
Proc 0: pack_comm_kokkos() call end
77  ekin = 100 | epot = 0 | etot = 100
Proc 0: pack_comm_kokkos() call start
Proc 0: pack_comm_kokkos() call end
Proc 0: pack_comm_kokkos() call start
Proc 1: pack_comm_kokkos() call start
Proc 1: pack_comm_kokkos() call end
Proc 1: pack_comm_kokkos() call start
Proc 1: pack_comm_kokkos() call end
Proc 0: pack_comm_kokkos() call end
78  ekin = 100 | epot = 0 | etot = 100
Proc 0: pack_comm_kokkos() call start
Proc 0: pack_comm_kokkos() call end
Proc 0: pack_comm_kokkos() call start
Proc 1: pack_comm_kokkos() call start
Proc 1: pack_comm_kokkos() call end
Proc 1: pack_comm_kokkos() call start
Proc 1: pack_comm_kokkos() call end
Proc 0: pack_comm_kokkos() call end
79  ekin = 100 | epot = 0 | etot = 100
Proc 0: pack_comm_kokkos() call start
Proc 0: pack_comm_kokkos() call end
Proc 0: pack_comm_kokkos() call start
Proc 1: pack_comm_kokkos() call start
Proc 1: pack_comm_kokkos() call end
Proc 1: pack_comm_kokkos() call start
Proc 1: pack_comm_kokkos() call end
Proc 0: pack_comm_kokkos() call end
80  ekin = 100 | epot = 0 | etot = 100
Proc 0: pack_comm_kokkos() call start
Proc 0: pack_comm_kokkos() call end
Proc 0: pack_comm_kokkos() call start
Proc 0: pack_comm_kokkos() call end
Proc 1: pack_comm_kokkos() call start
Proc 1: pack_comm_kokkos() call end
Proc 1: pack_comm_kokkos() call start
Proc 1: pack_comm_kokkos() call end
81  ekin = 100 | epot = 0 | etot = 100
Proc 0: pack_comm_kokkos() call start
Proc 0: pack_comm_kokkos() call end
Proc 0: pack_comm_kokkos() call start
Proc 1: pack_comm_kokkos() call start
Proc 1: pack_comm_kokkos() call end
Proc 1: pack_comm_kokkos() call start
Proc 1: pack_comm_kokkos() call end
Proc 0: pack_comm_kokkos() call end
82  ekin = 100 | epot = 0 | etot = 100
Proc 0: pack_comm_kokkos() call start
Proc 0: pack_comm_kokkos() call end
Proc 0: pack_comm_kokkos() call start
Proc 1: pack_comm_kokkos() call start
Proc 1: pack_comm_kokkos() call end
Proc 1: pack_comm_kokkos() call start
Proc 1: pack_comm_kokkos() call end
Proc 0: pack_comm_kokkos() call end
83  ekin = 100 | epot = 0 | etot = 100
Proc 0: pack_comm_kokkos() call start
Proc 0: pack_comm_kokkos() call end
Proc 0: pack_comm_kokkos() call start
Proc 1: pack_comm_kokkos() call start
Proc 1: pack_comm_kokkos() call end
Proc 1: pack_comm_kokkos() call start
Proc 1: pack_comm_kokkos() call end
Proc 0: pack_comm_kokkos() call end
84  ekin = 100 | epot = 0 | etot = 100
Proc 0: pack_comm_kokkos() call start
Proc 0: pack_comm_kokkos() call end
Proc 0: pack_comm_kokkos() call start
Proc 0: pack_comm_kokkos() call end
Proc 1: pack_comm_kokkos() call start
Proc 1: pack_comm_kokkos() call end
Proc 1: pack_comm_kokkos() call start
Proc 1: pack_comm_kokkos() call end
85  ekin = 100 | epot = 0 | etot = 100
Proc 0: pack_comm_kokkos() call start
Proc 0: pack_comm_kokkos() call end
Proc 0: pack_comm_kokkos() call start
Proc 1: pack_comm_kokkos() call start
Proc 1: pack_comm_kokkos() call end
Proc 1: pack_comm_kokkos() call start
Proc 1: pack_comm_kokkos() call end
Proc 0: pack_comm_kokkos() call end
86  ekin = 100 | epot = 0 | etot = 100
Proc 0: pack_comm_kokkos() call start
Proc 0: pack_comm_kokkos() call end
Proc 0: pack_comm_kokkos() call start
Proc 1: pack_comm_kokkos() call start
Proc 1: pack_comm_kokkos() call end
Proc 1: pack_comm_kokkos() call start
Proc 1: pack_comm_kokkos() call end
Proc 0: pack_comm_kokkos() call end
87  ekin = 100 | epot = 0 | etot = 100
Proc 0: pack_comm_kokkos() call start
Proc 0: pack_comm_kokkos() call end
Proc 0: pack_comm_kokkos() call start
Proc 0: pack_comm_kokkos() call end
Proc 1: pack_comm_kokkos() call start
Proc 1: pack_comm_kokkos() call end
Proc 1: pack_comm_kokkos() call start
Proc 1: pack_comm_kokkos() call end
88  ekin = 100 | epot = 0 | etot = 100
Proc 0: pack_comm_kokkos() call start
Proc 0: pack_comm_kokkos() call end
Proc 0: pack_comm_kokkos() call start
Proc 1: pack_comm_kokkos() call start
Proc 1: pack_comm_kokkos() call end
Proc 1: pack_comm_kokkos() call start
Proc 1: pack_comm_kokkos() call end
Proc 0: pack_comm_kokkos() call end
89  ekin = 100 | epot = 0 | etot = 100
Proc 0: pack_comm_kokkos() call start
Proc 0: pack_comm_kokkos() call end
Proc 0: pack_comm_kokkos() call start
Proc 1: pack_comm_kokkos() call start
Proc 1: pack_comm_kokkos() call end
Proc 1: pack_comm_kokkos() call start
Proc 1: pack_comm_kokkos() call end
Proc 0: pack_comm_kokkos() call end
90  ekin = 100 | epot = 0 | etot = 100
Proc 0: pack_comm_kokkos() call start
Proc 0: pack_comm_kokkos() call end
Proc 0: pack_comm_kokkos() call start
Proc 1: pack_comm_kokkos() call start
Proc 1: pack_comm_kokkos() call end
Proc 1: pack_comm_kokkos() call start
Proc 1: pack_comm_kokkos() call end
Proc 0: pack_comm_kokkos() call end
91  ekin = 100 | epot = 0 | etot = 100
Proc 0: pack_comm_kokkos() call start
Proc 0: pack_comm_kokkos() call end
Proc 0: pack_comm_kokkos() call start
Proc 1: pack_comm_kokkos() call start
Proc 1: pack_comm_kokkos() call end
Proc 1: pack_comm_kokkos() call start
Proc 1: pack_comm_kokkos() call end
Proc 0: pack_comm_kokkos() call end
92  ekin = 100 | epot = 0 | etot = 100
Proc 0: pack_comm_kokkos() call start
Proc 0: pack_comm_kokkos() call end
Proc 0: pack_comm_kokkos() call start
Proc 1: pack_comm_kokkos() call start
Proc 1: pack_comm_kokkos() call end
Proc 1: pack_comm_kokkos() call start
Proc 1: pack_comm_kokkos() call end
Proc 0: pack_comm_kokkos() call end
93  ekin = 100 | epot = 0 | etot = 100
Proc 0: pack_comm_kokkos() call start
Proc 0: pack_comm_kokkos() call end
Proc 0: pack_comm_kokkos() call start
Proc 0: pack_comm_kokkos() call end
Proc 1: pack_comm_kokkos() call start
Proc 1: pack_comm_kokkos() call end
Proc 1: pack_comm_kokkos() call start
Proc 1: pack_comm_kokkos() call end
94  ekin = 100 | epot = 0 | etot = 100
Proc 0: pack_comm_kokkos() call start
Proc 0: pack_comm_kokkos() call end
Proc 0: pack_comm_kokkos() call start
Proc 0: pack_comm_kokkos() call end
Proc 1: pack_comm_kokkos() call start
Proc 1: pack_comm_kokkos() call end
Proc 1: pack_comm_kokkos() call start
Proc 1: pack_comm_kokkos() call end
95  ekin = 100 | epot = 0 | etot = 100
Proc 0: pack_comm_kokkos() call start
Proc 0: pack_comm_kokkos() call end
Proc 0: pack_comm_kokkos() call start
Proc 0: pack_comm_kokkos() call end
Proc 1: pack_comm_kokkos() call start
Proc 1: pack_comm_kokkos() call end
Proc 1: pack_comm_kokkos() call start
Proc 1: pack_comm_kokkos() call end
96  ekin = 100 | epot = 0 | etot = 100
Proc 0: pack_comm_kokkos() call start
Proc 0: pack_comm_kokkos() call end
Proc 0: pack_comm_kokkos() call start
Proc 1: pack_comm_kokkos() call start
Proc 1: pack_comm_kokkos() call end
Proc 1: pack_comm_kokkos() call start
Proc 1: pack_comm_kokkos() call end
Proc 0: pack_comm_kokkos() call end
97  ekin = 100 | epot = 0 | etot = 100
Proc 0: pack_comm_kokkos() call start
Proc 0: pack_comm_kokkos() call end
Proc 0: pack_comm_kokkos() call start
Proc 1: pack_comm_kokkos() call start
Proc 1: pack_comm_kokkos() call end
Proc 1: pack_comm_kokkos() call start
Proc 1: pack_comm_kokkos() call end
Proc 0: pack_comm_kokkos() call end
98  ekin = 100 | epot = 0 | etot = 100
Proc 0: pack_comm_kokkos() call start
Proc 0: pack_comm_kokkos() call end
Proc 1: pack_comm_kokkos() call start
Proc 1: pack_comm_kokkos() call end
Proc 1: pack_comm_kokkos() call start
Proc 1: pack_comm_kokkos() call end
Proc 0: pack_comm_kokkos() call start
Proc 0: pack_comm_kokkos() call end
99  ekin = 100 | epot = 0 | etot = 100
Proc 0: pack_comm_kokkos() call start
Proc 0: pack_comm_kokkos() call end
Proc 1: pack_comm_kokkos() call start
Proc 1: pack_comm_kokkos() call end
Proc 1: pack_comm_kokkos() call start
Proc 1: pack_comm_kokkos() call end
Proc 0: pack_comm_kokkos() call start
Proc 0: pack_comm_kokkos() call end
100  ekin = 100 | epot = 0 | etot = 100
Proc 0: pack_comm_kokkos() call start
Proc 0: pack_comm_kokkos() call end
Proc 1: pack_comm_kokkos() call start
Proc 1: pack_comm_kokkos() call end
Proc 1: pack_comm_kokkos() call start
Proc 1: pack_comm_kokkos() call end
Proc 0: pack_comm_kokkos() call start
Proc 0: pack_comm_kokkos() call end
101  ekin = 100 | epot = 0 | etot = 100
Proc 0: pack_comm_kokkos() call start
Proc 0: pack_comm_kokkos() call end
Proc 1: pack_comm_kokkos() call start
Proc 1: pack_comm_kokkos() call end
Proc 1: pack_comm_kokkos() call start
Proc 1: pack_comm_kokkos() call end
Proc 0: pack_comm_kokkos() call start
Proc 0: pack_comm_kokkos() call end
102  ekin = 100 | epot = 0 | etot = 100
Proc 0: pack_comm_kokkos() call start
Proc 0: pack_comm_kokkos() call end
Proc 0: pack_comm_kokkos() call start
Proc 1: pack_comm_kokkos() call start
Proc 1: pack_comm_kokkos() call end
Proc 1: pack_comm_kokkos() call start
Proc 1: pack_comm_kokkos() call end
Proc 0: pack_comm_kokkos() call end
103  ekin = 100 | epot = 0 | etot = 100
Proc 0: pack_comm_kokkos() call start
Proc 0: pack_comm_kokkos() call end
Proc 1: pack_comm_kokkos() call start
Proc 1: pack_comm_kokkos() call end
Proc 1: pack_comm_kokkos() call start
Proc 1: pack_comm_kokkos() call end
Proc 0: pack_comm_kokkos() call start
Proc 0: pack_comm_kokkos() call end
104  ekin = 100 | epot = 0 | etot = 100
Proc 0: pack_comm_kokkos() call start
Proc 0: pack_comm_kokkos() call end
Proc 1: pack_comm_kokkos() call start
Proc 1: pack_comm_kokkos() call end
Proc 1: pack_comm_kokkos() call start
Proc 1: pack_comm_kokkos() call end
Proc 0: pack_comm_kokkos() call start
Proc 0: pack_comm_kokkos() call end
105  ekin = 100 | epot = 0 | etot = 100
Proc 0: pack_comm_kokkos() call start
Proc 0: pack_comm_kokkos() call end
Proc 0: pack_comm_kokkos() call start
Proc 0: pack_comm_kokkos() call end
Proc 1: pack_comm_kokkos() call start
Proc 1: pack_comm_kokkos() call end
Proc 1: pack_comm_kokkos() call start
Proc 1: pack_comm_kokkos() call end
106  ekin = 100 | epot = 0 | etot = 100
Proc 0: pack_comm_kokkos() call start
Proc 0: pack_comm_kokkos() call end
Proc 0: pack_comm_kokkos() call start
Proc 0: pack_comm_kokkos() call end
Proc 1: pack_comm_kokkos() call start
Proc 1: pack_comm_kokkos() call end
Proc 1: pack_comm_kokkos() call start
Proc 1: pack_comm_kokkos() call end
107  ekin = 100 | epot = 0 | etot = 100
Proc 0: pack_comm_kokkos() call start
Proc 0: pack_comm_kokkos() call end
Proc 0: pack_comm_kokkos() call start
Proc 1: pack_comm_kokkos() call start
Proc 1: pack_comm_kokkos() call end
Proc 1: pack_comm_kokkos() call start
Proc 1: pack_comm_kokkos() call end
Proc 0: pack_comm_kokkos() call end
108  ekin = 100 | epot = 0 | etot = 100
Proc 0: pack_comm_kokkos() call start
Proc 0: pack_comm_kokkos() call end
Proc 0: pack_comm_kokkos() call start
Proc 1: pack_comm_kokkos() call start
Proc 1: pack_comm_kokkos() call end
Proc 1: pack_comm_kokkos() call start
Proc 1: pack_comm_kokkos() call end
Proc 0: pack_comm_kokkos() call end
109  ekin = 100 | epot = 0 | etot = 100
Proc 0: pack_comm_kokkos() call start
Proc 0: pack_comm_kokkos() call end
Proc 0: pack_comm_kokkos() call start
Proc 1: pack_comm_kokkos() call start
Proc 1: pack_comm_kokkos() call end
Proc 1: pack_comm_kokkos() call start
Proc 1: pack_comm_kokkos() call end
Proc 0: pack_comm_kokkos() call end
110  ekin = 100 | epot = 0 | etot = 100
Proc 0: pack_comm_kokkos() call start
Proc 0: pack_comm_kokkos() call end
Proc 1: pack_comm_kokkos() call start
Proc 1: pack_comm_kokkos() call end
Proc 1: pack_comm_kokkos() call start
Proc 1: pack_comm_kokkos() call end
Proc 0: pack_comm_kokkos() call start
Proc 0: pack_comm_kokkos() call end
111  ekin = 100 | epot = 0 | etot = 100
Proc 0: pack_comm_kokkos() call start
Proc 0: pack_comm_kokkos() call end
Proc 1: pack_comm_kokkos() call start
Proc 1: pack_comm_kokkos() call end
Proc 1: pack_comm_kokkos() call start
Proc 1: pack_comm_kokkos() call end
Proc 0: pack_comm_kokkos() call start
Proc 0: pack_comm_kokkos() call end
112  ekin = 100 | epot = 0 | etot = 100
Proc 0: pack_comm_kokkos() call start
Proc 0: pack_comm_kokkos() call end
Proc 1: pack_comm_kokkos() call start
Proc 1: pack_comm_kokkos() call end
Proc 1: pack_comm_kokkos() call start
Proc 1: pack_comm_kokkos() call end
Proc 0: pack_comm_kokkos() call start
Proc 0: pack_comm_kokkos() call end
113  ekin = 100 | epot = 0 | etot = 100
Proc 0: pack_comm_kokkos() call start
Proc 0: pack_comm_kokkos() call end
Proc 1: pack_comm_kokkos() call start
Proc 1: pack_comm_kokkos() call end
Proc 1: pack_comm_kokkos() call start
Proc 1: pack_comm_kokkos() call end
Proc 0: pack_comm_kokkos() call start
Proc 0: pack_comm_kokkos() call end
114  ekin = 100 | epot = 0 | etot = 100
Proc 0: pack_comm_kokkos() call start
Proc 0: pack_comm_kokkos() call end
Proc 1: pack_comm_kokkos() call start
Proc 1: pack_comm_kokkos() call end
Proc 1: pack_comm_kokkos() call start
Proc 1: pack_comm_kokkos() call end
Proc 0: pack_comm_kokkos() call start
Proc 0: pack_comm_kokkos() call end
115  ekin = 100 | epot = 0 | etot = 100
Proc 1: pack_comm_kokkos() call start
Proc 1: pack_comm_kokkos() call end
Proc 1: pack_comm_kokkos() call start
Proc 1: pack_comm_kokkos() call end
Proc 0: pack_comm_kokkos() call start
Proc 0: pack_comm_kokkos() call end
Proc 0: pack_comm_kokkos() call start
Proc 0: pack_comm_kokkos() call end
116  ekin = 100 | epot = 0 | etot = 100
Proc 0: pack_comm_kokkos() call start
Proc 1: pack_comm_kokkos() call start
Proc 1: pack_comm_kokkos() call end
Proc 1: pack_comm_kokkos() call start
Proc 1: pack_comm_kokkos() call end
Proc 0: pack_comm_kokkos() call end
Proc 0: pack_comm_kokkos() call start
Proc 0: pack_comm_kokkos() call end
117  ekin = 100 | epot = 0 | etot = 100
Proc 1: pack_comm_kokkos() call start
Proc 1: pack_comm_kokkos() call end
Proc 1: pack_comm_kokkos() call start
Proc 1: pack_comm_kokkos() call end
Proc 0: pack_comm_kokkos() call start
Proc 0: pack_comm_kokkos() call end
Proc 0: pack_comm_kokkos() call start
Proc 0: pack_comm_kokkos() call end
118  ekin = 100 | epot = 0 | etot = 100
Proc 0: pack_comm_kokkos() call start
Proc 1: pack_comm_kokkos() call start
Proc 1: pack_comm_kokkos() call end
Proc 1: pack_comm_kokkos() call start
Proc 1: pack_comm_kokkos() call end
Proc 0: pack_comm_kokkos() call end
Proc 0: pack_comm_kokkos() call start
Proc 0: pack_comm_kokkos() call end
119  ekin = 100 | epot = 0 | etot = 100
Proc 0: pack_comm_kokkos() call start
Proc 1: pack_comm_kokkos() call start
Proc 1: pack_comm_kokkos() call end
Proc 1: pack_comm_kokkos() call start
Proc 1: pack_comm_kokkos() call end
Proc 0: pack_comm_kokkos() call end
Proc 0: pack_comm_kokkos() call start
Proc 0: pack_comm_kokkos() call end
120  ekin = 100 | epot = 0 | etot = 100
Proc 0: pack_comm_kokkos() call start
Proc 1: pack_comm_kokkos() call start
Proc 1: pack_comm_kokkos() call end
Proc 1: pack_comm_kokkos() call start
Proc 1: pack_comm_kokkos() call end
Proc 0: pack_comm_kokkos() call end
Proc 0: pack_comm_kokkos() call start
Proc 0: pack_comm_kokkos() call end
121  ekin = 100 | epot = 0 | etot = 100
Proc 0: pack_comm_kokkos() call start
Proc 0: pack_comm_kokkos() call end
Proc 0: pack_comm_kokkos() call start
Proc 0: pack_comm_kokkos() call end
122  ekin = 100 | epot = 0 | etot = 100
Proc 0: pack_comm_kokkos() call start
Proc 0: pack_comm_kokkos() call end
Proc 0: pack_comm_kokkos() call start
Proc 0: pack_comm_kokkos() call end
123  ekin = 100 | epot = 0 | etot = 100
Proc 0: pack_comm_kokkos() call start
Proc 0: pack_comm_kokkos() call end
Proc 0: pack_comm_kokkos() call start
Proc 0: pack_comm_kokkos() call end
124  ekin = 100 | epot = 0 | etot = 100
Proc 0: pack_comm_kokkos() call start
Proc 0: pack_comm_kokkos() call end
Proc 0: pack_comm_kokkos() call start
Proc 0: pack_comm_kokkos() call end
125  ekin = 100 | epot = 0 | etot = 100
Proc 0: pack_comm_kokkos() call start
Proc 0: pack_comm_kokkos() call end
Proc 0: pack_comm_kokkos() call start
Proc 0: pack_comm_kokkos() call end
126  ekin = 100 | epot = 0 | etot = 100
Proc 0: pack_comm_kokkos() call start
Proc 0: pack_comm_kokkos() call end
Proc 0: pack_comm_kokkos() call start
Proc 0: pack_comm_kokkos() call end
127  ekin = 100 | epot = 0 | etot = 100
Proc 0: pack_comm_kokkos() call start
Proc 0: pack_comm_kokkos() call end
Proc 0: pack_comm_kokkos() call start
Proc 0: pack_comm_kokkos() call end
128  ekin = 100 | epot = 0 | etot = 100
Proc 0: pack_comm_kokkos() call start
Proc 0: pack_comm_kokkos() call end
Proc 0: pack_comm_kokkos() call start
Proc 0: pack_comm_kokkos() call end
129  ekin = 100 | epot = 0 | etot = 100
Proc 0: pack_comm_kokkos() call start
Proc 0: pack_comm_kokkos() call end
Proc 0: pack_comm_kokkos() call start
Proc 0: pack_comm_kokkos() call end
130  ekin = 100 | epot = 0 | etot = 100
Proc 0: pack_comm_kokkos() call start
Proc 0: pack_comm_kokkos() call end
Proc 0: pack_comm_kokkos() call start
Proc 0: pack_comm_kokkos() call end
131  ekin = 100 | epot = 0 | etot = 100
Proc 0: pack_comm_kokkos() call start
Proc 0: pack_comm_kokkos() call end
Proc 0: pack_comm_kokkos() call start
Proc 0: pack_comm_kokkos() call end
132  ekin = 100 | epot = 0 | etot = 100
Proc 0: pack_comm_kokkos() call start
Proc 0: pack_comm_kokkos() call end
Proc 0: pack_comm_kokkos() call start
Proc 0: pack_comm_kokkos() call end
133  ekin = 100 | epot = 0 | etot = 100
Proc 0: pack_comm_kokkos() call start
Proc 0: pack_comm_kokkos() call end
Proc 0: pack_comm_kokkos() call start
Proc 0: pack_comm_kokkos() call end
134  ekin = 100 | epot = 0 | etot = 100
Proc 0: pack_comm_kokkos() call start
Proc 0: pack_comm_kokkos() call end
Proc 0: pack_comm_kokkos() call start
Proc 0: pack_comm_kokkos() call end
135  ekin = 100 | epot = 0 | etot = 100
Proc 0: pack_comm_kokkos() call start
Proc 0: pack_comm_kokkos() call end
Proc 0: pack_comm_kokkos() call start
Proc 0: pack_comm_kokkos() call end
136  ekin = 100 | epot = 0 | etot = 100
Proc 0: pack_comm_kokkos() call start
Proc 0: pack_comm_kokkos() call end
Proc 0: pack_comm_kokkos() call start
Proc 0: pack_comm_kokkos() call end
137  ekin = 100 | epot = 0 | etot = 100
Proc 0: pack_comm_kokkos() call start
Proc 0: pack_comm_kokkos() call end
Proc 0: pack_comm_kokkos() call start
Proc 0: pack_comm_kokkos() call end
138  ekin = 100 | epot = 0 | etot = 100
Proc 0: pack_comm_kokkos() call start
Proc 0: pack_comm_kokkos() call end
Proc 0: pack_comm_kokkos() call start
Proc 0: pack_comm_kokkos() call end
139  ekin = 100 | epot = 0 | etot = 100
Proc 0: pack_comm_kokkos() call start
Proc 0: pack_comm_kokkos() call end
Proc 0: pack_comm_kokkos() call start
Proc 0: pack_comm_kokkos() call end
140  ekin = 100 | epot = 0 | etot = 100
Proc 0: pack_comm_kokkos() call start
Proc 0: pack_comm_kokkos() call end
Proc 0: pack_comm_kokkos() call start
Proc 0: pack_comm_kokkos() call end
141  ekin = 100 | epot = 0 | etot = 100
Proc 0: pack_comm_kokkos() call start
Proc 0: pack_comm_kokkos() call end
Proc 0: pack_comm_kokkos() call start
Proc 0: pack_comm_kokkos() call end
142  ekin = 100 | epot = 0 | etot = 100
Proc 0: pack_comm_kokkos() call start
Proc 0: pack_comm_kokkos() call end
Proc 0: pack_comm_kokkos() call start
Proc 0: pack_comm_kokkos() call end
143  ekin = 100 | epot = 0 | etot = 100
Proc 0: pack_comm_kokkos() call start
Proc 0: pack_comm_kokkos() call end
Proc 0: pack_comm_kokkos() call start
Proc 0: pack_comm_kokkos() call end
144  ekin = 100 | epot = 0 | etot = 100
Proc 0: pack_comm_kokkos() call start
Proc 0: pack_comm_kokkos() call end
Proc 0: pack_comm_kokkos() call start
Proc 0: pack_comm_kokkos() call end
145  ekin = 100 | epot = 0 | etot = 100
Proc 0: pack_comm_kokkos() call start
Proc 0: pack_comm_kokkos() call end
Proc 0: pack_comm_kokkos() call start
Proc 0: pack_comm_kokkos() call end
146  ekin = 100 | epot = 0 | etot = 100
Proc 0: pack_comm_kokkos() call start
Proc 0: pack_comm_kokkos() call end
Proc 0: pack_comm_kokkos() call start
Proc 0: pack_comm_kokkos() call end
147  ekin = 100 | epot = 0 | etot = 100
Proc 0: pack_comm_kokkos() call start
Proc 0: pack_comm_kokkos() call end
Proc 0: pack_comm_kokkos() call start
Proc 0: pack_comm_kokkos() call end
148  ekin = 100 | epot = 0 | etot = 100
Proc 0: pack_comm_kokkos() call start
Proc 0: pack_comm_kokkos() call end
Proc 0: pack_comm_kokkos() call start
Proc 0: pack_comm_kokkos() call end
149  ekin = 100 | epot = 0 | etot = 100
Proc 0: pack_exchange_kokkos() call start
Proc 0: pack_exchange_kokkos() call start
Proc 0: pack_exchange_kokkos() call start
Proc 0: pack_border_kokkos() call start
Proc 0: pack_border_kokkos() call end
Proc 0: unpack_border_kokkos() call start
Proc 0: unpack_border_kokkos() call end
Proc 0: pack_border_kokkos() call start
Proc 0: pack_border_kokkos() call end
Proc 0: unpack_border_kokkos() call start
Proc 0: unpack_border_kokkos() call end
Proc 0: pack_border_kokkos() call start
Proc 0: pack_border_kokkos() call end
Proc 0: unpack_border_kokkos() call start
Proc 0: unpack_border_kokkos() call end
Proc 0: pack_border_kokkos() call start
Proc 0: pack_border_kokkos() call end
Proc 0: unpack_border_kokkos() call start
Proc 0: unpack_border_kokkos() call end
Proc 0: pack_border_kokkos() call start
Proc 0: pack_border_kokkos() call end
Proc 0: unpack_border_kokkos() call start
Proc 0: unpack_border_kokkos() call end
Proc 0: pack_border_kokkos() call start
Proc 0: pack_border_kokkos() call end
Proc 0: unpack_border_kokkos() call start
Proc 0: unpack_border_kokkos() call end
150  ekin = 100 | epot = 0 | etot = 100
Proc 1: pack_comm_kokkos() call start
Proc 1: pack_comm_kokkos() call end
Proc 1: pack_comm_kokkos() call start
Proc 1: pack_comm_kokkos() call end
Proc 1: pack_comm_kokkos() call start
Proc 1: pack_comm_kokkos() call end
Proc 1: pack_comm_kokkos() call start
Proc 1: pack_comm_kokkos() call end
Proc 1: pack_comm_kokkos() call start
Proc 1: pack_comm_kokkos() call end
Proc 1: pack_comm_kokkos() call start
Proc 1: pack_comm_kokkos() call end
Proc 1: pack_comm_kokkos() call start
Proc 1: pack_comm_kokkos() call end
Proc 1: pack_comm_kokkos() call start
Proc 1: pack_comm_kokkos() call end
Proc 1: pack_comm_kokkos() call start
Proc 1: pack_comm_kokkos() call end
Proc 1: pack_comm_kokkos() call start
Proc 1: pack_comm_kokkos() call end
Proc 1: pack_comm_kokkos() call start
Proc 1: pack_comm_kokkos() call end
Proc 1: pack_comm_kokkos() call start
Proc 1: pack_comm_kokkos() call end
Proc 1: pack_comm_kokkos() call start
Proc 1: pack_comm_kokkos() call end
Proc 1: pack_comm_kokkos() call start
Proc 1: pack_comm_kokkos() call end
Proc 1: pack_comm_kokkos() call start
Proc 1: pack_comm_kokkos() call end
Proc 1: pack_comm_kokkos() call start
Proc 1: pack_comm_kokkos() call end
Proc 1: pack_comm_kokkos() call start
Proc 1: pack_comm_kokkos() call end
Proc 1: pack_comm_kokkos() call start
Proc 1: pack_comm_kokkos() call end
Proc 1: pack_comm_kokkos() call start
Proc 1: pack_comm_kokkos() call end
Proc 1: pack_comm_kokkos() call start
Proc 1: pack_comm_kokkos() call end
Proc 1: pack_comm_kokkos() call start
Proc 1: pack_comm_kokkos() call end
Proc 1: pack_comm_kokkos() call start
Proc 1: pack_comm_kokkos() call end
Proc 1: pack_comm_kokkos() call start
Proc 1: pack_comm_kokkos() call end
Proc 1: pack_comm_kokkos() call start
Proc 1: pack_comm_kokkos() call end
Proc 1: pack_comm_kokkos() call start
Proc 1: pack_comm_kokkos() call end
Proc 1: pack_comm_kokkos() call start
Proc 1: pack_comm_kokkos() call end
Proc 1: pack_comm_kokkos() call start
Proc 1: pack_comm_kokkos() call end
Proc 1: pack_comm_kokkos() call start
Proc 1: pack_comm_kokkos() call end
Proc 1: pack_comm_kokkos() call start
Proc 1: pack_comm_kokkos() call end
Proc 1: pack_comm_kokkos() call start
Proc 1: pack_comm_kokkos() call end
Proc 1: pack_comm_kokkos() call start
Proc 1: pack_comm_kokkos() call end
Proc 1: pack_comm_kokkos() call start
Proc 1: pack_comm_kokkos() call end
Proc 1: pack_comm_kokkos() call start
Proc 1: pack_comm_kokkos() call end
Proc 1: pack_comm_kokkos() call start
Proc 1: pack_comm_kokkos() call end
Proc 1: pack_comm_kokkos() call start
Proc 1: pack_comm_kokkos() call end
Proc 1: pack_comm_kokkos() call start
Proc 1: pack_comm_kokkos() call end
Proc 1: pack_comm_kokkos() call start
Proc 1: pack_comm_kokkos() call end
Proc 1: pack_comm_kokkos() call start
Proc 1: pack_comm_kokkos() call end
Proc 1: pack_comm_kokkos() call start
Proc 1: pack_comm_kokkos() call end
Proc 1: pack_comm_kokkos() call start
Proc 1: pack_comm_kokkos() call end
Proc 1: pack_comm_kokkos() call start
Proc 1: pack_comm_kokkos() call end
Proc 1: pack_comm_kokkos() call start
Proc 1: pack_comm_kokkos() call end
Proc 1: pack_comm_kokkos() call start
Proc 1: pack_comm_kokkos() call end
Proc 1: pack_comm_kokkos() call start
Proc 1: pack_comm_kokkos() call end
Proc 1: pack_comm_kokkos() call start
Proc 1: pack_comm_kokkos() call end
Proc 1: pack_comm_kokkos() call start
Proc 1: pack_comm_kokkos() call end
Proc 1: pack_comm_kokkos() call start
Proc 1: pack_comm_kokkos() call end
Proc 1: pack_comm_kokkos() call start
Proc 1: pack_comm_kokkos() call end
Proc 1: pack_comm_kokkos() call start
Proc 1: pack_comm_kokkos() call end
Proc 1: pack_comm_kokkos() call start
Proc 1: pack_comm_kokkos() call end
Proc 1: pack_comm_kokkos() call start
Proc 1: pack_comm_kokkos() call end
Proc 1: pack_comm_kokkos() call start
Proc 1: pack_comm_kokkos() call end
Proc 1: pack_comm_kokkos() call start
Proc 1: pack_comm_kokkos() call end
Proc 1: pack_comm_kokkos() call start
Proc 1: pack_comm_kokkos() call end
Proc 1: pack_comm_kokkos() call start
Proc 1: pack_comm_kokkos() call end
Proc 1: pack_comm_kokkos() call start
Proc 1: pack_comm_kokkos() call end
Proc 1: pack_exchange_kokkos() call start
Proc 1: pack_exchange_kokkos() call start
Proc 1: pack_exchange_kokkos() call start
Proc 1: unpack_exchange_kokkos() call start
Proc 1: unpack_exchange_kokkos() call end
Proc 1: pack_border_kokkos() call start
Proc 1: pack_border_kokkos() call end
Proc 1: unpack_border_kokkos() call start
Proc 1: unpack_border_kokkos() call end
Proc 1: pack_border_kokkos() call start
Proc 1: pack_border_kokkos() call end
Proc 1: unpack_border_kokkos() call start
Proc 1: unpack_border_kokkos() call end
Proc 1: pack_border_kokkos() call start
Proc 1: pack_border_kokkos() call end
Proc 1: unpack_border_kokkos() call start
Proc 1: unpack_border_kokkos() call end
Proc 1: pack_border_kokkos() call start
Proc 1: pack_border_kokkos() call end
Proc 1: unpack_border_kokkos() call start
Proc 1: unpack_border_kokkos() call end
Proc 1: pack_border_kokkos() call start
Proc 1: pack_border_kokkos() call end
Proc 1: unpack_border_kokkos() call start
Proc 1: unpack_border_kokkos() call end
Proc 1: pack_border_kokkos() call start
Proc 1: pack_border_kokkos() call end
Proc 1: unpack_border_kokkos() call start
Proc 1: unpack_border_kokkos() call end
Proc 0: pack_comm_kokkos() call start
Proc 0: pack_comm_kokkos() call end
Proc 0: pack_comm_kokkos() call start
Proc 0: pack_comm_kokkos() call end
Proc 1: pack_comm_kokkos() call start
Proc 1: pack_comm_kokkos() call end
Proc 1: pack_comm_kokkos() call start
Proc 1: pack_comm_kokkos() call end
151  ekin = 100 | epot = 0 | etot = 100
Proc 0: pack_comm_kokkos() call start
Proc 0: pack_comm_kokkos() call end
Proc 0: pack_comm_kokkos() call start
Proc 0: pack_comm_kokkos() call end
Proc 1: pack_comm_kokkos() call start
Proc 1: pack_comm_kokkos() call end
Proc 1: pack_comm_kokkos() call start
Proc 1: pack_comm_kokkos() call end
152  ekin = 100 | epot = 0 | etot = 100
Proc 0: pack_comm_kokkos() call start
Proc 0: pack_comm_kokkos() call end
Proc 1: pack_comm_kokkos() call start
Proc 1: pack_comm_kokkos() call end
Proc 1: pack_comm_kokkos() call start
Proc 1: pack_comm_kokkos() call end
Proc 0: pack_comm_kokkos() call start
Proc 0: pack_comm_kokkos() call end
153  ekin = 100 | epot = 0 | etot = 100
Proc 0: pack_comm_kokkos() call start
Proc 0: pack_comm_kokkos() call end
Proc 0: pack_comm_kokkos() call start
Proc 1: pack_comm_kokkos() call start
Proc 1: pack_comm_kokkos() call end
Proc 1: pack_comm_kokkos() call start
Proc 1: pack_comm_kokkos() call end
Proc 0: pack_comm_kokkos() call end
154  ekin = 100 | epot = 0 | etot = 100
Proc 0: pack_comm_kokkos() call start
Proc 0: pack_comm_kokkos() call end
Proc 0: pack_comm_kokkos() call start
Proc 0: pack_comm_kokkos() call end
Proc 1: pack_comm_kokkos() call start
Proc 1: pack_comm_kokkos() call end
Proc 1: pack_comm_kokkos() call start
Proc 1: pack_comm_kokkos() call end
155  ekin = 100 | epot = 0 | etot = 100
Proc 0: pack_comm_kokkos() call start
Proc 0: pack_comm_kokkos() call end
Proc 0: pack_comm_kokkos() call start
Proc 0: pack_comm_kokkos() call end
Proc 1: pack_comm_kokkos() call start
Proc 1: pack_comm_kokkos() call end
Proc 1: pack_comm_kokkos() call start
Proc 1: pack_comm_kokkos() call end
156  ekin = 100 | epot = 0 | etot = 100
Proc 0: pack_comm_kokkos() call start
Proc 0: pack_comm_kokkos() call end
Proc 0: pack_comm_kokkos() call start
Proc 0: pack_comm_kokkos() call end
Proc 1: pack_comm_kokkos() call start
Proc 1: pack_comm_kokkos() call end
Proc 1: pack_comm_kokkos() call start
Proc 1: pack_comm_kokkos() call end
157  ekin = 100 | epot = 0 | etot = 100
Proc 0: pack_comm_kokkos() call start
Proc 0: pack_comm_kokkos() call end
Proc 0: pack_comm_kokkos() call start
Proc 0: pack_comm_kokkos() call end
Proc 1: pack_comm_kokkos() call start
Proc 1: pack_comm_kokkos() call end
Proc 1: pack_comm_kokkos() call start
Proc 1: pack_comm_kokkos() call end
158  ekin = 100 | epot = 0 | etot = 100
Proc 0: pack_comm_kokkos() call start
Proc 0: pack_comm_kokkos() call end
Proc 0: pack_comm_kokkos() call start
Proc 0: pack_comm_kokkos() call end
Proc 1: pack_comm_kokkos() call start
Proc 1: pack_comm_kokkos() call end
Proc 1: pack_comm_kokkos() call start
Proc 1: pack_comm_kokkos() call end
159  ekin = 100 | epot = 0 | etot = 100
Proc 0: pack_comm_kokkos() call start
Proc 0: pack_comm_kokkos() call end
Proc 0: pack_comm_kokkos() call start
Proc 0: pack_comm_kokkos() call end
Proc 1: pack_comm_kokkos() call start
Proc 1: pack_comm_kokkos() call end
Proc 1: pack_comm_kokkos() call start
Proc 1: pack_comm_kokkos() call end
160  ekin = 100 | epot = 0 | etot = 100
Proc 0: pack_comm_kokkos() call start
Proc 0: pack_comm_kokkos() call end
Proc 0: pack_comm_kokkos() call start
Proc 0: pack_comm_kokkos() call end
Proc 1: pack_comm_kokkos() call start
Proc 1: pack_comm_kokkos() call end
Proc 1: pack_comm_kokkos() call start
Proc 1: pack_comm_kokkos() call end
161  ekin = 100 | epot = 0 | etot = 100
Proc 0: pack_comm_kokkos() call start
Proc 0: pack_comm_kokkos() call end
Proc 0: pack_comm_kokkos() call start
Proc 0: pack_comm_kokkos() call end
Proc 1: pack_comm_kokkos() call start
Proc 1: pack_comm_kokkos() call end
Proc 1: pack_comm_kokkos() call start
Proc 1: pack_comm_kokkos() call end
162  ekin = 100 | epot = 0 | etot = 100
Proc 0: pack_comm_kokkos() call start
Proc 0: pack_comm_kokkos() call end
Proc 0: pack_comm_kokkos() call start
Proc 0: pack_comm_kokkos() call end
Proc 1: pack_comm_kokkos() call start
Proc 1: pack_comm_kokkos() call end
Proc 1: pack_comm_kokkos() call start
Proc 1: pack_comm_kokkos() call end
163  ekin = 100 | epot = 0 | etot = 100
Proc 0: pack_comm_kokkos() call start
Proc 0: pack_comm_kokkos() call end
Proc 0: pack_comm_kokkos() call start
Proc 0: pack_comm_kokkos() call end
Proc 1: pack_comm_kokkos() call start
Proc 1: pack_comm_kokkos() call end
Proc 1: pack_comm_kokkos() call start
Proc 1: pack_comm_kokkos() call end
164  ekin = 100 | epot = 0 | etot = 100
Proc 0: pack_comm_kokkos() call start
Proc 0: pack_comm_kokkos() call end
Proc 0: pack_comm_kokkos() call start
Proc 1: pack_comm_kokkos() call start
Proc 1: pack_comm_kokkos() call end
Proc 1: pack_comm_kokkos() call start
Proc 1: pack_comm_kokkos() call end
Proc 0: pack_comm_kokkos() call end
165  ekin = 100 | epot = 0 | etot = 100
Proc 0: pack_comm_kokkos() call start
Proc 0: pack_comm_kokkos() call end
Proc 1: pack_comm_kokkos() call start
Proc 1: pack_comm_kokkos() call end
Proc 1: pack_comm_kokkos() call start
Proc 1: pack_comm_kokkos() call end
Proc 0: pack_comm_kokkos() call start
Proc 0: pack_comm_kokkos() call end
166  ekin = 100 | epot = 0 | etot = 100
Proc 0: pack_comm_kokkos() call start
Proc 0: pack_comm_kokkos() call end
Proc 1: pack_comm_kokkos() call start
Proc 1: pack_comm_kokkos() call end
Proc 1: pack_comm_kokkos() call start
Proc 1: pack_comm_kokkos() call end
Proc 0: pack_comm_kokkos() call start
Proc 0: pack_comm_kokkos() call end
167  ekin = 100 | epot = 0 | etot = 100
Proc 0: pack_comm_kokkos() call start
Proc 0: pack_comm_kokkos() call end
Proc 1: pack_comm_kokkos() call start
Proc 1: pack_comm_kokkos() call end
Proc 1: pack_comm_kokkos() call start
Proc 1: pack_comm_kokkos() call end
Proc 0: pack_comm_kokkos() call start
Proc 0: pack_comm_kokkos() call end
168  ekin = 100 | epot = 0 | etot = 100
Proc 0: pack_comm_kokkos() call start
Proc 0: pack_comm_kokkos() call end
Proc 1: pack_comm_kokkos() call start
Proc 1: pack_comm_kokkos() call end
Proc 1: pack_comm_kokkos() call start
Proc 1: pack_comm_kokkos() call end
Proc 0: pack_comm_kokkos() call start
Proc 0: pack_comm_kokkos() call end
169  ekin = 100 | epot = 0 | etot = 100
Proc 0: pack_comm_kokkos() call start
Proc 0: pack_comm_kokkos() call end
Proc 1: pack_comm_kokkos() call start
Proc 1: pack_comm_kokkos() call end
Proc 1: pack_comm_kokkos() call start
Proc 1: pack_comm_kokkos() call end
Proc 0: pack_comm_kokkos() call start
Proc 0: pack_comm_kokkos() call end
170  ekin = 100 | epot = 0 | etot = 100
Proc 0: pack_comm_kokkos() call start
Proc 0: pack_comm_kokkos() call end
Proc 1: pack_comm_kokkos() call start
Proc 1: pack_comm_kokkos() call end
Proc 1: pack_comm_kokkos() call start
Proc 1: pack_comm_kokkos() call end
Proc 0: pack_comm_kokkos() call start
Proc 0: pack_comm_kokkos() call end
171  ekin = 100 | epot = 0 | etot = 100
Proc 0: pack_comm_kokkos() call start
Proc 0: pack_comm_kokkos() call end
Proc 1: pack_comm_kokkos() call start
Proc 1: pack_comm_kokkos() call end
Proc 1: pack_comm_kokkos() call start
Proc 1: pack_comm_kokkos() call end
Proc 0: pack_comm_kokkos() call start
Proc 0: pack_comm_kokkos() call end
172  ekin = 100 | epot = 0 | etot = 100
Proc 0: pack_comm_kokkos() call start
Proc 0: pack_comm_kokkos() call end
Proc 1: pack_comm_kokkos() call start
Proc 1: pack_comm_kokkos() call end
Proc 1: pack_comm_kokkos() call start
Proc 1: pack_comm_kokkos() call end
Proc 0: pack_comm_kokkos() call start
Proc 0: pack_comm_kokkos() call end
173  ekin = 100 | epot = 0 | etot = 100
Proc 0: pack_comm_kokkos() call start
Proc 0: pack_comm_kokkos() call end
Proc 1: pack_comm_kokkos() call start
Proc 1: pack_comm_kokkos() call end
Proc 1: pack_comm_kokkos() call start
Proc 1: pack_comm_kokkos() call end
Proc 0: pack_comm_kokkos() call start
Proc 0: pack_comm_kokkos() call end
174  ekin = 100 | epot = 0 | etot = 100
Proc 0: pack_comm_kokkos() call start
Proc 0: pack_comm_kokkos() call end
Proc 1: pack_comm_kokkos() call start
Proc 1: pack_comm_kokkos() call end
Proc 1: pack_comm_kokkos() call start
Proc 0: pack_comm_kokkos() call start
Proc 1: pack_comm_kokkos() call end
Proc 0: pack_comm_kokkos() call end
175  ekin = 100 | epot = 0 | etot = 100
Proc 0: pack_comm_kokkos() call start
Proc 0: pack_comm_kokkos() call end
Proc 1: pack_comm_kokkos() call start
Proc 1: pack_comm_kokkos() call end
Proc 1: pack_comm_kokkos() call start
Proc 1: pack_comm_kokkos() call end
Proc 0: pack_comm_kokkos() call start
Proc 0: pack_comm_kokkos() call end
176  ekin = 100 | epot = 0 | etot = 100
Proc 0: pack_comm_kokkos() call start
Proc 0: pack_comm_kokkos() call end
Proc 1: pack_comm_kokkos() call start
Proc 1: pack_comm_kokkos() call end
Proc 1: pack_comm_kokkos() call start
Proc 1: pack_comm_kokkos() call end
Proc 0: pack_comm_kokkos() call start
Proc 0: pack_comm_kokkos() call end
177  ekin = 100 | epot = 0 | etot = 100
Proc 0: pack_comm_kokkos() call start
Proc 0: pack_comm_kokkos() call end
Proc 1: pack_comm_kokkos() call start
Proc 1: pack_comm_kokkos() call end
Proc 1: pack_comm_kokkos() call start
Proc 1: pack_comm_kokkos() call end
Proc 0: pack_comm_kokkos() call start
Proc 0: pack_comm_kokkos() call end
178  ekin = 100 | epot = 0 | etot = 100
Proc 0: pack_comm_kokkos() call start
Proc 0: pack_comm_kokkos() call end
Proc 1: pack_comm_kokkos() call start
Proc 1: pack_comm_kokkos() call end
Proc 1: pack_comm_kokkos() call start
Proc 1: pack_comm_kokkos() call end
Proc 0: pack_comm_kokkos() call start
Proc 0: pack_comm_kokkos() call end
179  ekin = 100 | epot = 0 | etot = 100
Proc 0: pack_comm_kokkos() call start
Proc 0: pack_comm_kokkos() call end
Proc 1: pack_comm_kokkos() call start
Proc 1: pack_comm_kokkos() call end
Proc 1: pack_comm_kokkos() call start
Proc 1: pack_comm_kokkos() call end
Proc 0: pack_comm_kokkos() call start
Proc 0: pack_comm_kokkos() call end
180  ekin = 100 | epot = 0 | etot = 100
Proc 0: pack_comm_kokkos() call start
Proc 0: pack_comm_kokkos() call end
Proc 1: pack_comm_kokkos() call start
Proc 1: pack_comm_kokkos() call end
Proc 1: pack_comm_kokkos() call start
Proc 1: pack_comm_kokkos() call end
Proc 0: pack_comm_kokkos() call start
Proc 0: pack_comm_kokkos() call end
181  ekin = 100 | epot = 0 | etot = 100
Proc 0: pack_comm_kokkos() call start
Proc 0: pack_comm_kokkos() call end
Proc 1: pack_comm_kokkos() call start
Proc 1: pack_comm_kokkos() call end
Proc 1: pack_comm_kokkos() call start
Proc 1: pack_comm_kokkos() call end
Proc 0: pack_comm_kokkos() call start
Proc 0: pack_comm_kokkos() call end
182  ekin = 100 | epot = 0 | etot = 100
Proc 0: pack_comm_kokkos() call start
Proc 0: pack_comm_kokkos() call end
Proc 1: pack_comm_kokkos() call start
Proc 1: pack_comm_kokkos() call end
Proc 1: pack_comm_kokkos() call start
Proc 1: pack_comm_kokkos() call end
Proc 0: pack_comm_kokkos() call start
Proc 0: pack_comm_kokkos() call end
183  ekin = 100 | epot = 0 | etot = 100
Proc 0: pack_comm_kokkos() call start
Proc 0: pack_comm_kokkos() call end
Proc 1: pack_comm_kokkos() call start
Proc 1: pack_comm_kokkos() call end
Proc 1: pack_comm_kokkos() call start
Proc 1: pack_comm_kokkos() call end
Proc 0: pack_comm_kokkos() call start
Proc 0: pack_comm_kokkos() call end
184  ekin = 100 | epot = 0 | etot = 100
Proc 0: pack_comm_kokkos() call start
Proc 0: pack_comm_kokkos() call end
Proc 1: pack_comm_kokkos() call start
Proc 1: pack_comm_kokkos() call end
Proc 1: pack_comm_kokkos() call start
Proc 1: pack_comm_kokkos() call end
Proc 0: pack_comm_kokkos() call start
Proc 0: pack_comm_kokkos() call end
185  ekin = 100 | epot = 0 | etot = 100
Proc 0: pack_comm_kokkos() call start
Proc 0: pack_comm_kokkos() call end
Proc 1: pack_comm_kokkos() call start
Proc 1: pack_comm_kokkos() call end
Proc 1: pack_comm_kokkos() call start
Proc 1: pack_comm_kokkos() call end
Proc 0: pack_comm_kokkos() call start
Proc 0: pack_comm_kokkos() call end
186  ekin = 100 | epot = 0 | etot = 100
Proc 0: pack_comm_kokkos() call start
Proc 0: pack_comm_kokkos() call end
Proc 1: pack_comm_kokkos() call start
Proc 1: pack_comm_kokkos() call end
Proc 1: pack_comm_kokkos() call start
Proc 1: pack_comm_kokkos() call end
Proc 0: pack_comm_kokkos() call start
Proc 0: pack_comm_kokkos() call end
187  ekin = 100 | epot = 0 | etot = 100
Proc 0: pack_comm_kokkos() call start
Proc 0: pack_comm_kokkos() call end
Proc 1: pack_comm_kokkos() call start
Proc 1: pack_comm_kokkos() call end
Proc 1: pack_comm_kokkos() call start
Proc 1: pack_comm_kokkos() call end
Proc 0: pack_comm_kokkos() call start
Proc 0: pack_comm_kokkos() call end
188  ekin = 100 | epot = 0 | etot = 100
Proc 0: pack_comm_kokkos() call start
Proc 0: pack_comm_kokkos() call end
Proc 1: pack_comm_kokkos() call start
Proc 1: pack_comm_kokkos() call end
Proc 1: pack_comm_kokkos() call start
Proc 1: pack_comm_kokkos() call end
Proc 0: pack_comm_kokkos() call start
Proc 0: pack_comm_kokkos() call end
189  ekin = 100 | epot = 0 | etot = 100
Proc 0: pack_comm_kokkos() call start
Proc 0: pack_comm_kokkos() call end
Proc 1: pack_comm_kokkos() call start
Proc 1: pack_comm_kokkos() call end
Proc 1: pack_comm_kokkos() call start
Proc 1: pack_comm_kokkos() call end
Proc 0: pack_comm_kokkos() call start
Proc 0: pack_comm_kokkos() call end
190  ekin = 100 | epot = 0 | etot = 100
Proc 0: pack_comm_kokkos() call start
Proc 0: pack_comm_kokkos() call end
Proc 0: pack_comm_kokkos() call start
Proc 1: pack_comm_kokkos() call start
Proc 1: pack_comm_kokkos() call end
Proc 1: pack_comm_kokkos() call start
Proc 1: pack_comm_kokkos() call end
Proc 0: pack_comm_kokkos() call end
191  ekin = 100 | epot = 0 | etot = 100
Proc 0: pack_comm_kokkos() call start
Proc 0: pack_comm_kokkos() call end
Proc 1: pack_comm_kokkos() call start
Proc 1: pack_comm_kokkos() call end
Proc 1: pack_comm_kokkos() call start
Proc 1: pack_comm_kokkos() call end
Proc 0: pack_comm_kokkos() call start
Proc 0: pack_comm_kokkos() call end
192  ekin = 100 | epot = 0 | etot = 100
Proc 0: pack_comm_kokkos() call start
Proc 0: pack_comm_kokkos() call end
Proc 1: pack_comm_kokkos() call start
Proc 1: pack_comm_kokkos() call end
Proc 1: pack_comm_kokkos() call start
Proc 1: pack_comm_kokkos() call end
Proc 0: pack_comm_kokkos() call start
Proc 0: pack_comm_kokkos() call end
193  ekin = 100 | epot = 0 | etot = 100
Proc 0: pack_comm_kokkos() call start
Proc 0: pack_comm_kokkos() call end
Proc 1: pack_comm_kokkos() call start
Proc 1: pack_comm_kokkos() call end
Proc 1: pack_comm_kokkos() call start
Proc 1: pack_comm_kokkos() call end
Proc 0: pack_comm_kokkos() call start
Proc 0: pack_comm_kokkos() call end
194  ekin = 100 | epot = 0 | etot = 100
Proc 0: pack_comm_kokkos() call start
Proc 0: pack_comm_kokkos() call end
Proc 1: pack_comm_kokkos() call start
Proc 1: pack_comm_kokkos() call end
Proc 1: pack_comm_kokkos() call start
Proc 1: pack_comm_kokkos() call end
Proc 0: pack_comm_kokkos() call start
Proc 0: pack_comm_kokkos() call end
195  ekin = 100 | epot = 0 | etot = 100
Proc 0: pack_comm_kokkos() call start
Proc 0: pack_comm_kokkos() call end
Proc 1: pack_comm_kokkos() call start
Proc 1: pack_comm_kokkos() call end
Proc 0: pack_comm_kokkos() call start
Proc 0: pack_comm_kokkos() call end
Proc 1: pack_comm_kokkos() call start
Proc 1: pack_comm_kokkos() call end
196  ekin = 100 | epot = 0 | etot = 100
Proc 0: pack_comm_kokkos() call start
Proc 0: pack_comm_kokkos() call end
Proc 1: pack_comm_kokkos() call start
Proc 1: pack_comm_kokkos() call end
Proc 1: pack_comm_kokkos() call start
Proc 1: pack_comm_kokkos() call end
Proc 0: pack_comm_kokkos() call start
Proc 0: pack_comm_kokkos() call end
197  ekin = 100 | epot = 0 | etot = 100
Proc 0: pack_comm_kokkos() call start
Proc 0: pack_comm_kokkos() call end
Proc 1: pack_comm_kokkos() call start
Proc 1: pack_comm_kokkos() call end
Proc 1: pack_comm_kokkos() call start
Proc 1: pack_comm_kokkos() call end
Proc 0: pack_comm_kokkos() call start
Proc 0: pack_comm_kokkos() call end
198  ekin = 100 | epot = 0 | etot = 100
Proc 0: pack_comm_kokkos() call start
Proc 0: pack_comm_kokkos() call end
Proc 1: pack_comm_kokkos() call start
Proc 1: pack_comm_kokkos() call end
Proc 1: pack_comm_kokkos() call start
Proc 1: pack_comm_kokkos() call end
Proc 0: pack_comm_kokkos() call start
Proc 0: pack_comm_kokkos() call end
199  ekin = 100 | epot = 0 | etot = 100
Proc 0: pack_comm_kokkos() call start
Proc 0: pack_comm_kokkos() call end
Proc 1: pack_comm_kokkos() call start
Proc 1: pack_comm_kokkos() call end
Proc 1: pack_comm_kokkos() call start
Proc 1: pack_comm_kokkos() call end
Proc 0: pack_comm_kokkos() call start
Proc 0: pack_comm_kokkos() call end
200  ekin = 100 | epot = 0 | etot = 100
Proc 0: pack_comm_kokkos() call start
Proc 0: pack_comm_kokkos() call end
Proc 1: pack_comm_kokkos() call start
Proc 1: pack_comm_kokkos() call end
Proc 1: pack_comm_kokkos() call start
Proc 1: pack_comm_kokkos() call end
Proc 0: pack_comm_kokkos() call start
Proc 0: pack_comm_kokkos() call end
201  ekin = 100 | epot = 0 | etot = 100
Proc 0: pack_comm_kokkos() call start
Proc 0: pack_comm_kokkos() call end
Proc 1: pack_comm_kokkos() call start
Proc 1: pack_comm_kokkos() call end
Proc 1: pack_comm_kokkos() call start
Proc 1: pack_comm_kokkos() call end
Proc 0: pack_comm_kokkos() call start
Proc 0: pack_comm_kokkos() call end
202  ekin = 100 | epot = 0 | etot = 100
Proc 0: pack_comm_kokkos() call start
Proc 0: pack_comm_kokkos() call end
Proc 1: pack_comm_kokkos() call start
Proc 1: pack_comm_kokkos() call end
Proc 1: pack_comm_kokkos() call start
Proc 1: pack_comm_kokkos() call end
Proc 0: pack_comm_kokkos() call start
Proc 0: pack_comm_kokkos() call end
203  ekin = 100 | epot = 0 | etot = 100
Proc 0: pack_comm_kokkos() call start
Proc 0: pack_comm_kokkos() call end
Proc 1: pack_comm_kokkos() call start
Proc 1: pack_comm_kokkos() call end
Proc 1: pack_comm_kokkos() call start
Proc 1: pack_comm_kokkos() call end
Proc 0: pack_comm_kokkos() call start
Proc 0: pack_comm_kokkos() call end
204  ekin = 100 | epot = 0 | etot = 100
Proc 0: pack_comm_kokkos() call start
Proc 0: pack_comm_kokkos() call end
Proc 0: pack_comm_kokkos() call start
Proc 1: pack_comm_kokkos() call start
Proc 1: pack_comm_kokkos() call end
Proc 1: pack_comm_kokkos() call start
Proc 1: pack_comm_kokkos() call end
Proc 0: pack_comm_kokkos() call end
205  ekin = 100 | epot = 0 | etot = 100
Proc 0: pack_comm_kokkos() call start
Proc 0: pack_comm_kokkos() call end
Proc 1: pack_comm_kokkos() call start
Proc 1: pack_comm_kokkos() call end
Proc 1: pack_comm_kokkos() call start
Proc 1: pack_comm_kokkos() call end
Proc 0: pack_comm_kokkos() call start
Proc 0: pack_comm_kokkos() call end
206  ekin = 100 | epot = 0 | etot = 100
Proc 0: pack_comm_kokkos() call start
Proc 1: pack_comm_kokkos() call start
Proc 1: pack_comm_kokkos() call end
Proc 1: pack_comm_kokkos() call start
Proc 1: pack_comm_kokkos() call end
Proc 0: pack_comm_kokkos() call end
Proc 0: pack_comm_kokkos() call start
Proc 0: pack_comm_kokkos() call end
207  ekin = 100 | epot = 0 | etot = 100
Proc 0: pack_comm_kokkos() call start
Proc 0: pack_comm_kokkos() call end
Proc 1: pack_comm_kokkos() call start
Proc 1: pack_comm_kokkos() call end
Proc 1: pack_comm_kokkos() call start
Proc 1: pack_comm_kokkos() call end
Proc 0: pack_comm_kokkos() call start
Proc 0: pack_comm_kokkos() call end
208  ekin = 100 | epot = 0 | etot = 100
Proc 0: pack_comm_kokkos() call start
Proc 0: pack_comm_kokkos() call end
Proc 0: pack_comm_kokkos() call start
Proc 0: pack_comm_kokkos() call end
Proc 1: pack_comm_kokkos() call start
Proc 1: pack_comm_kokkos() call end
Proc 1: pack_comm_kokkos() call start
Proc 1: pack_comm_kokkos() call end
209  ekin = 100 | epot = 0 | etot = 100
Proc 0: pack_comm_kokkos() call start
Proc 0: pack_comm_kokkos() call end
Proc 0: pack_comm_kokkos() call start
Proc 0: pack_comm_kokkos() call end
Proc 1: pack_comm_kokkos() call start
Proc 1: pack_comm_kokkos() call end
Proc 1: pack_comm_kokkos() call start
Proc 1: pack_comm_kokkos() call end
210  ekin = 100 | epot = 0 | etot = 100
Proc 0: pack_comm_kokkos() call start
Proc 0: pack_comm_kokkos() call end
Proc 1: pack_comm_kokkos() call start
Proc 1: pack_comm_kokkos() call end
Proc 1: pack_comm_kokkos() call start
Proc 1: pack_comm_kokkos() call end
Proc 0: pack_comm_kokkos() call start
Proc 0: pack_comm_kokkos() call end
211  ekin = 100 | epot = 0 | etot = 100
Proc 0: pack_comm_kokkos() call start
Proc 0: pack_comm_kokkos() call end
Proc 0: pack_comm_kokkos() call start
Proc 1: pack_comm_kokkos() call start
Proc 1: pack_comm_kokkos() call end
Proc 1: pack_comm_kokkos() call start
Proc 1: pack_comm_kokkos() call end
Proc 0: pack_comm_kokkos() call end
212  ekin = 100 | epot = 0 | etot = 100
Proc 0: pack_comm_kokkos() call start
Proc 0: pack_comm_kokkos() call end
Proc 0: pack_comm_kokkos() call start
Proc 1: pack_comm_kokkos() call start
Proc 1: pack_comm_kokkos() call end
Proc 1: pack_comm_kokkos() call start
Proc 1: pack_comm_kokkos() call end
Proc 0: pack_comm_kokkos() call end
213  ekin = 100 | epot = 0 | etot = 100
Proc 0: pack_comm_kokkos() call start
Proc 0: pack_comm_kokkos() call end
Proc 0: pack_comm_kokkos() call start
Proc 0: pack_comm_kokkos() call end
Proc 1: pack_comm_kokkos() call start
Proc 1: pack_comm_kokkos() call end
Proc 1: pack_comm_kokkos() call start
Proc 1: pack_comm_kokkos() call end
214  ekin = 100 | epot = 0 | etot = 100
Proc 0: pack_comm_kokkos() call start
Proc 0: pack_comm_kokkos() call end
Proc 1: pack_comm_kokkos() call start
Proc 1: pack_comm_kokkos() call end
Proc 1: pack_comm_kokkos() call start
Proc 1: pack_comm_kokkos() call end
Proc 0: pack_comm_kokkos() call start
Proc 0: pack_comm_kokkos() call end
215  ekin = 100 | epot = 0 | etot = 100
Proc 0: pack_comm_kokkos() call start
Proc 0: pack_comm_kokkos() call end
Proc 1: pack_comm_kokkos() call start
Proc 1: pack_comm_kokkos() call end
Proc 1: pack_comm_kokkos() call start
Proc 1: pack_comm_kokkos() call end
Proc 0: pack_comm_kokkos() call start
Proc 0: pack_comm_kokkos() call end
[...]
Proc 0: pack_comm_kokkos() call start
Proc 0: pack_comm_kokkos() call end
Proc 1: pack_comm_kokkos() call start
Proc 1: pack_comm_kokkos() call end
Proc 1: pack_comm_kokkos() call start
Proc 1: pack_comm_kokkos() call end
Proc 0: pack_comm_kokkos() call start
Proc 0: pack_comm_kokkos() call end
9952  ekin = 100 | epot = 0 | etot = 100
Proc 0: pack_comm_kokkos() call start
Proc 0: pack_comm_kokkos() call end
Proc 1: pack_comm_kokkos() call start
Proc 1: pack_comm_kokkos() call end
Proc 1: pack_comm_kokkos() call start
Proc 1: pack_comm_kokkos() call end
Proc 0: pack_comm_kokkos() call start
Proc 0: pack_comm_kokkos() call end
9953  ekin = 100 | epot = 0 | etot = 100
Proc 0: pack_comm_kokkos() call start
Proc 0: pack_comm_kokkos() call end
Proc 1: pack_comm_kokkos() call start
Proc 1: pack_comm_kokkos() call end
Proc 1: pack_comm_kokkos() call start
Proc 1: pack_comm_kokkos() call end
Proc 0: pack_comm_kokkos() call start
Proc 0: pack_comm_kokkos() call end
9954  ekin = 100 | epot = 0 | etot = 100
Proc 0: pack_comm_kokkos() call start
Proc 0: pack_comm_kokkos() call end
Proc 0: pack_comm_kokkos() call start
Proc 1: pack_comm_kokkos() call start
Proc 1: pack_comm_kokkos() call end
Proc 1: pack_comm_kokkos() call start
Proc 1: pack_comm_kokkos() call end
Proc 0: pack_comm_kokkos() call end
9955  ekin = 100 | epot = 0 | etot = 100
Proc 0: pack_comm_kokkos() call start
Proc 0: pack_comm_kokkos() call end
Proc 0: pack_comm_kokkos() call start
Proc 0: pack_comm_kokkos() call end
Proc 1: pack_comm_kokkos() call start
Proc 1: pack_comm_kokkos() call end
Proc 1: pack_comm_kokkos() call start
Proc 1: pack_comm_kokkos() call end
9956  ekin = 100 | epot = 0 | etot = 100
Proc 0: pack_comm_kokkos() call start
Proc 0: pack_comm_kokkos() call end
Proc 0: pack_comm_kokkos() call start
Proc 0: pack_comm_kokkos() call end
Proc 1: pack_comm_kokkos() call start
Proc 1: pack_comm_kokkos() call end
Proc 1: pack_comm_kokkos() call start
Proc 1: pack_comm_kokkos() call end
9957  ekin = 100 | epot = 0 | etot = 100
Proc 0: pack_comm_kokkos() call start
Proc 0: pack_comm_kokkos() call end
Proc 0: pack_comm_kokkos() call start
Proc 1: pack_comm_kokkos() call start
Proc 1: pack_comm_kokkos() call end
Proc 1: pack_comm_kokkos() call start
Proc 1: pack_comm_kokkos() call end
Proc 0: pack_comm_kokkos() call end
9958  ekin = 100 | epot = 0 | etot = 100
Proc 0: pack_comm_kokkos() call start
Proc 0: pack_comm_kokkos() call end
Proc 1: pack_comm_kokkos() call start
Proc 1: pack_comm_kokkos() call end
Proc 1: pack_comm_kokkos() call start
Proc 1: pack_comm_kokkos() call end
Proc 0: pack_comm_kokkos() call start
Proc 0: pack_comm_kokkos() call end
9959  ekin = 100 | epot = 0 | etot = 100
Proc 0: pack_comm_kokkos() call start
Proc 0: pack_comm_kokkos() call end
Proc 1: pack_comm_kokkos() call start
Proc 1: pack_comm_kokkos() call end
Proc 1: pack_comm_kokkos() call start
Proc 1: pack_comm_kokkos() call end
Proc 0: pack_comm_kokkos() call start
Proc 0: pack_comm_kokkos() call end
9960  ekin = 100 | epot = 0 | etot = 100
Proc 0: pack_comm_kokkos() call start
Proc 0: pack_comm_kokkos() call end
Proc 1: pack_comm_kokkos() call start
Proc 1: pack_comm_kokkos() call end
Proc 1: pack_comm_kokkos() call start
Proc 1: pack_comm_kokkos() call end
Proc 0: pack_comm_kokkos() call start
Proc 0: pack_comm_kokkos() call end
9961  ekin = 100 | epot = 0 | etot = 100
Proc 0: pack_comm_kokkos() call start
Proc 0: pack_comm_kokkos() call end
Proc 1: pack_comm_kokkos() call start
Proc 1: pack_comm_kokkos() call end
Proc 1: pack_comm_kokkos() call start
Proc 1: pack_comm_kokkos() call end
Proc 0: pack_comm_kokkos() call start
Proc 0: pack_comm_kokkos() call end
9962  ekin = 100 | epot = 0 | etot = 100
Proc 0: pack_comm_kokkos() call start
Proc 0: pack_comm_kokkos() call end
Proc 1: pack_comm_kokkos() call start
Proc 1: pack_comm_kokkos() call end
Proc 1: pack_comm_kokkos() call start
Proc 1: pack_comm_kokkos() call end
Proc 0: pack_comm_kokkos() call start
Proc 0: pack_comm_kokkos() call end
9963  ekin = 100 | epot = 0 | etot = 100
Proc 0: pack_comm_kokkos() call start
Proc 0: pack_comm_kokkos() call end
Proc 1: pack_comm_kokkos() call start
Proc 1: pack_comm_kokkos() call end
Proc 1: pack_comm_kokkos() call start
Proc 1: pack_comm_kokkos() call end
Proc 0: pack_comm_kokkos() call start
Proc 0: pack_comm_kokkos() call end
9964  ekin = 100 | epot = 0 | etot = 100
Proc 0: pack_comm_kokkos() call start
Proc 0: pack_comm_kokkos() call end
Proc 1: pack_comm_kokkos() call start
Proc 1: pack_comm_kokkos() call end
Proc 1: pack_comm_kokkos() call start
Proc 1: pack_comm_kokkos() call end
Proc 0: pack_comm_kokkos() call start
Proc 0: pack_comm_kokkos() call end
9965  ekin = 100 | epot = 0 | etot = 100
Proc 0: pack_comm_kokkos() call start
Proc 0: pack_comm_kokkos() call end
Proc 1: pack_comm_kokkos() call start
Proc 1: pack_comm_kokkos() call end
Proc 1: pack_comm_kokkos() call start
Proc 1: pack_comm_kokkos() call end
Proc 0: pack_comm_kokkos() call start
Proc 0: pack_comm_kokkos() call end
9966  ekin = 100 | epot = 0 | etot = 100
Proc 0: pack_comm_kokkos() call start
Proc 0: pack_comm_kokkos() call end
Proc 1: pack_comm_kokkos() call start
Proc 1: pack_comm_kokkos() call end
Proc 1: pack_comm_kokkos() call start
Proc 1: pack_comm_kokkos() call end
Proc 0: pack_comm_kokkos() call start
Proc 0: pack_comm_kokkos() call end
9967  ekin = 100 | epot = 0 | etot = 100
Proc 0: pack_comm_kokkos() call start
Proc 0: pack_comm_kokkos() call end
Proc 0: pack_comm_kokkos() call start
Proc 1: pack_comm_kokkos() call start
Proc 1: pack_comm_kokkos() call end
Proc 1: pack_comm_kokkos() call start
Proc 1: pack_comm_kokkos() call end
Proc 0: pack_comm_kokkos() call end
9968  ekin = 100 | epot = 0 | etot = 100
Proc 0: pack_comm_kokkos() call start
Proc 0: pack_comm_kokkos() call end
Proc 1: pack_comm_kokkos() call start
Proc 1: pack_comm_kokkos() call end
Proc 1: pack_comm_kokkos() call start
Proc 1: pack_comm_kokkos() call end
Proc 0: pack_comm_kokkos() call start
Proc 0: pack_comm_kokkos() call end
9969  ekin = 100 | epot = 0 | etot = 100
Proc 0: pack_comm_kokkos() call start
Proc 0: pack_comm_kokkos() call end
Proc 1: pack_comm_kokkos() call start
Proc 1: pack_comm_kokkos() call end
Proc 1: pack_comm_kokkos() call start
Proc 1: pack_comm_kokkos() call end
Proc 0: pack_comm_kokkos() call start
Proc 0: pack_comm_kokkos() call end
9970  ekin = 100 | epot = 0 | etot = 100
Proc 0: pack_comm_kokkos() call start
Proc 0: pack_comm_kokkos() call end
Proc 0: pack_comm_kokkos() call start
Proc 1: pack_comm_kokkos() call start
Proc 1: pack_comm_kokkos() call end
Proc 1: pack_comm_kokkos() call start
Proc 1: pack_comm_kokkos() call end
Proc 0: pack_comm_kokkos() call end
9971  ekin = 100 | epot = 0 | etot = 100
Proc 0: pack_comm_kokkos() call start
Proc 0: pack_comm_kokkos() call end
Proc 1: pack_comm_kokkos() call start
Proc 1: pack_comm_kokkos() call end
Proc 1: pack_comm_kokkos() call start
Proc 1: pack_comm_kokkos() call end
Proc 0: pack_comm_kokkos() call start
Proc 0: pack_comm_kokkos() call end
9972  ekin = 100 | epot = 0 | etot = 100
Proc 0: pack_comm_kokkos() call start
Proc 0: pack_comm_kokkos() call end
Proc 1: pack_comm_kokkos() call start
Proc 1: pack_comm_kokkos() call end
Proc 1: pack_comm_kokkos() call start
Proc 1: pack_comm_kokkos() call end
Proc 0: pack_comm_kokkos() call start
Proc 0: pack_comm_kokkos() call end
9973  ekin = 100 | epot = 0 | etot = 100
Proc 0: pack_comm_kokkos() call start
Proc 0: pack_comm_kokkos() call end
Proc 1: pack_comm_kokkos() call start
Proc 1: pack_comm_kokkos() call end
Proc 1: pack_comm_kokkos() call start
Proc 1: pack_comm_kokkos() call end
Proc 0: pack_comm_kokkos() call start
Proc 0: pack_comm_kokkos() call end
9974  ekin = 100 | epot = 0 | etot = 100
Proc 0: pack_comm_kokkos() call start
Proc 0: pack_comm_kokkos() call end
Proc 1: pack_comm_kokkos() call start
Proc 1: pack_comm_kokkos() call end
Proc 1: pack_comm_kokkos() call start
Proc 1: pack_comm_kokkos() call end
Proc 0: pack_comm_kokkos() call start
Proc 0: pack_comm_kokkos() call end
9975  ekin = 100 | epot = 0 | etot = 100
Proc 0: pack_comm_kokkos() call start
Proc 0: pack_comm_kokkos() call end
Proc 1: pack_comm_kokkos() call start
Proc 1: pack_comm_kokkos() call end
Proc 1: pack_comm_kokkos() call start
Proc 1: pack_comm_kokkos() call end
Proc 0: pack_comm_kokkos() call start
Proc 0: pack_comm_kokkos() call end
9976  ekin = 100 | epot = 0 | etot = 100
Proc 0: pack_comm_kokkos() call start
Proc 0: pack_comm_kokkos() call end
Proc 0: pack_comm_kokkos() call start
Proc 0: pack_comm_kokkos() call end
Proc 1: pack_comm_kokkos() call start
Proc 1: pack_comm_kokkos() call end
Proc 1: pack_comm_kokkos() call start
Proc 1: pack_comm_kokkos() call end
9977  ekin = 100 | epot = 0 | etot = 100
Proc 0: pack_comm_kokkos() call start
Proc 0: pack_comm_kokkos() call end
Proc 1: pack_comm_kokkos() call start
Proc 1: pack_comm_kokkos() call end
Proc 1: pack_comm_kokkos() call start
Proc 1: pack_comm_kokkos() call end
Proc 0: pack_comm_kokkos() call start
Proc 0: pack_comm_kokkos() call end
9978  ekin = 100 | epot = 0 | etot = 100
Proc 0: pack_comm_kokkos() call start
Proc 0: pack_comm_kokkos() call end
Proc 1: pack_comm_kokkos() call start
Proc 1: pack_comm_kokkos() call end
Proc 1: pack_comm_kokkos() call start
Proc 1: pack_comm_kokkos() call end
Proc 0: pack_comm_kokkos() call start
Proc 0: pack_comm_kokkos() call end
9979  ekin = 100 | epot = 0 | etot = 100
Proc 0: pack_comm_kokkos() call start
Proc 0: pack_comm_kokkos() call end
Proc 1: pack_comm_kokkos() call start
Proc 1: pack_comm_kokkos() call end
Proc 1: pack_comm_kokkos() call start
Proc 0: pack_comm_kokkos() call start
Proc 0: pack_comm_kokkos() call end
Proc 1: pack_comm_kokkos() call end
Proc 1: pack_comm_kokkos() call start
Proc 1: pack_comm_kokkos() call end
Proc 1: pack_comm_kokkos() call start
Proc 1: pack_comm_kokkos() call end
Proc 1: pack_comm_kokkos() call start
Proc 1: pack_comm_kokkos() call end
Proc 1: pack_comm_kokkos() call start
Proc 1: pack_comm_kokkos() call end
Proc 1: pack_comm_kokkos() call start
Proc 1: pack_comm_kokkos() call end
Proc 1: pack_comm_kokkos() call start
Proc 1: pack_comm_kokkos() call end
Proc 1: pack_comm_kokkos() call start
Proc 1: pack_comm_kokkos() call end
Proc 1: pack_comm_kokkos() call start
Proc 1: pack_comm_kokkos() call end
Proc 1: pack_comm_kokkos() call start
Proc 1: pack_comm_kokkos() call end
Proc 1: pack_comm_kokkos() call start
Proc 1: pack_comm_kokkos() call end
Proc 1: pack_comm_kokkos() call start
Proc 1: pack_comm_kokkos() call end
Proc 1: pack_comm_kokkos() call start
Proc 1: pack_comm_kokkos() call end
Proc 1: pack_comm_kokkos() call start
Proc 1: pack_comm_kokkos() call end
Proc 1: pack_comm_kokkos() call start
Proc 1: pack_comm_kokkos() call end
Proc 1: pack_comm_kokkos() call start
Proc 1: pack_comm_kokkos() call end
Proc 1: pack_comm_kokkos() call start
Proc 1: pack_comm_kokkos() call end
Proc 1: pack_comm_kokkos() call start
Proc 1: pack_comm_kokkos() call end
Proc 1: pack_comm_kokkos() call start
Proc 1: pack_comm_kokkos() call end
Proc 1: pack_comm_kokkos() call start
Proc 1: pack_comm_kokkos() call end
Proc 1: pack_comm_kokkos() call start
Proc 1: pack_comm_kokkos() call end
Proc 1: pack_comm_kokkos() call start
Proc 1: pack_comm_kokkos() call end
Proc 1: pack_comm_kokkos() call start
Proc 1: pack_comm_kokkos() call end
Proc 1: pack_comm_kokkos() call start
Proc 1: pack_comm_kokkos() call end
Proc 1: pack_comm_kokkos() call start
Proc 1: pack_comm_kokkos() call end
Proc 1: pack_comm_kokkos() call start
Proc 1: pack_comm_kokkos() call end
Proc 1: pack_comm_kokkos() call start
Proc 1: pack_comm_kokkos() call end
Proc 1: pack_comm_kokkos() call start
Proc 1: pack_comm_kokkos() call end
Proc 1: pack_comm_kokkos() call start
Proc 1: pack_comm_kokkos() call end
Proc 1: pack_comm_kokkos() call start
Proc 1: pack_comm_kokkos() call end
Proc 1: pack_comm_kokkos() call start
Proc 1: pack_comm_kokkos() call end
Proc 1: pack_comm_kokkos() call start
Proc 1: pack_comm_kokkos() call end
Proc 1: pack_comm_kokkos() call start
Proc 1: pack_comm_kokkos() call end
Proc 1: pack_comm_kokkos() call start
Proc 1: pack_comm_kokkos() call end
Proc 1: pack_comm_kokkos() call start
Proc 1: pack_comm_kokkos() call end
Proc 1: pack_comm_kokkos() call start
Proc 1: pack_comm_kokkos() call end
Proc 1: pack_comm_kokkos() call start
Proc 1: pack_comm_kokkos() call end
Proc 1: pack_comm_kokkos() call start
Proc 1: pack_comm_kokkos() call end
Proc 1: pack_comm_kokkos() call start
Proc 1: pack_comm_kokkos() call end
Proc 1: pack_comm_kokkos() call start
Proc 1: pack_comm_kokkos() call end
Proc 1: pack_comm_kokkos() call start
Proc 1: pack_comm_kokkos() call end
Proc 1: pack_exchange_kokkos() call start
Proc 1: pack_exchange_kokkos() call start
Proc 1: pack_exchange_kokkos() call start
Proc 1: pack_border_kokkos() call start
Proc 1: pack_border_kokkos() call end
Proc 1: unpack_border_kokkos() call start
Proc 1: unpack_border_kokkos() call end
Proc 1: pack_border_kokkos() call start
Proc 1: pack_border_kokkos() call end
Proc 1: unpack_border_kokkos() call start
Proc 1: unpack_border_kokkos() call end
Proc 1: pack_border_kokkos() call start
Proc 1: pack_border_kokkos() call end
Proc 1: unpack_border_kokkos() call start
Proc 1: unpack_border_kokkos() call end
Proc 1: pack_border_kokkos() call start
Proc 1: pack_border_kokkos() call end
Proc 1: unpack_border_kokkos() call start
Proc 1: unpack_border_kokkos() call end
Proc 1: pack_border_kokkos() call start
Proc 1: pack_border_kokkos() call end
Proc 1: unpack_border_kokkos() call start
Proc 1: unpack_border_kokkos() call end
Proc 1: pack_border_kokkos() call start
Proc 1: pack_border_kokkos() call end
Proc 1: unpack_border_kokkos() call start
Proc 1: unpack_border_kokkos() call end
9980  ekin = 100 | epot = 0 | etot = 100
Proc 0: pack_comm_kokkos() call start
Proc 0: pack_comm_kokkos() call end
Proc 0: pack_comm_kokkos() call start
Proc 0: pack_comm_kokkos() call end
9981  ekin = 100 | epot = 0 | etot = 100
Proc 0: pack_comm_kokkos() call start
Proc 0: pack_comm_kokkos() call end
Proc 0: pack_comm_kokkos() call start
Proc 0: pack_comm_kokkos() call end
9982  ekin = 100 | epot = 0 | etot = 100
Proc 0: pack_comm_kokkos() call start
Proc 0: pack_comm_kokkos() call end
Proc 0: pack_comm_kokkos() call start
Proc 0: pack_comm_kokkos() call end
9983  ekin = 100 | epot = 0 | etot = 100
Proc 0: pack_comm_kokkos() call start
Proc 0: pack_comm_kokkos() call end
Proc 0: pack_comm_kokkos() call start
Proc 0: pack_comm_kokkos() call end
9984  ekin = 100 | epot = 0 | etot = 100
Proc 0: pack_comm_kokkos() call start
Proc 0: pack_comm_kokkos() call end
Proc 0: pack_comm_kokkos() call start
Proc 0: pack_comm_kokkos() call end
9985  ekin = 100 | epot = 0 | etot = 100
Proc 0: pack_comm_kokkos() call start
Proc 0: pack_comm_kokkos() call end
Proc 0: pack_comm_kokkos() call start
Proc 0: pack_comm_kokkos() call end
9986  ekin = 100 | epot = 0 | etot = 100
Proc 0: pack_comm_kokkos() call start
Proc 0: pack_comm_kokkos() call end
Proc 0: pack_comm_kokkos() call start
Proc 0: pack_comm_kokkos() call end
9987  ekin = 100 | epot = 0 | etot = 100
Proc 0: pack_comm_kokkos() call start
Proc 0: pack_comm_kokkos() call end
Proc 0: pack_comm_kokkos() call start
Proc 0: pack_comm_kokkos() call end
9988  ekin = 100 | epot = 0 | etot = 100
Proc 0: pack_comm_kokkos() call start
Proc 0: pack_comm_kokkos() call end
Proc 0: pack_comm_kokkos() call start
Proc 0: pack_comm_kokkos() call end
9989  ekin = 100 | epot = 0 | etot = 100
Proc 0: pack_comm_kokkos() call start
Proc 0: pack_comm_kokkos() call end
Proc 0: pack_comm_kokkos() call start
Proc 0: pack_comm_kokkos() call end
9990  ekin = 100 | epot = 0 | etot = 100
Proc 0: pack_comm_kokkos() call start
Proc 0: pack_comm_kokkos() call end
Proc 0: pack_comm_kokkos() call start
Proc 0: pack_comm_kokkos() call end
9991  ekin = 100 | epot = 0 | etot = 100
Proc 0: pack_comm_kokkos() call start
Proc 0: pack_comm_kokkos() call end
Proc 0: pack_comm_kokkos() call start
Proc 0: pack_comm_kokkos() call end
9992  ekin = 100 | epot = 0 | etot = 100
Proc 0: pack_comm_kokkos() call start
Proc 0: pack_comm_kokkos() call end
Proc 0: pack_comm_kokkos() call start
Proc 0: pack_comm_kokkos() call end
9993  ekin = 100 | epot = 0 | etot = 100
Proc 0: pack_comm_kokkos() call start
Proc 0: pack_comm_kokkos() call end
Proc 0: pack_comm_kokkos() call start
Proc 0: pack_comm_kokkos() call end
9994  ekin = 100 | epot = 0 | etot = 100
Proc 0: pack_comm_kokkos() call start
Proc 0: pack_comm_kokkos() call end
Proc 0: pack_comm_kokkos() call start
Proc 0: pack_comm_kokkos() call end
9995  ekin = 100 | epot = 0 | etot = 100
Proc 0: pack_comm_kokkos() call start
Proc 0: pack_comm_kokkos() call end
Proc 0: pack_comm_kokkos() call start
Proc 0: pack_comm_kokkos() call end
9996  ekin = 100 | epot = 0 | etot = 100
Proc 0: pack_comm_kokkos() call start
Proc 0: pack_comm_kokkos() call end
Proc 0: pack_comm_kokkos() call start
Proc 0: pack_comm_kokkos() call end
9997  ekin = 100 | epot = 0 | etot = 100
Proc 0: pack_comm_kokkos() call start
Proc 0: pack_comm_kokkos() call end
Proc 0: pack_comm_kokkos() call start
Proc 0: pack_comm_kokkos() call end
9998  ekin = 100 | epot = 0 | etot = 100
Proc 0: pack_comm_kokkos() call start
Proc 0: pack_comm_kokkos() call end
Proc 0: pack_comm_kokkos() call start
Proc 0: pack_comm_kokkos() call end
9999  ekin = 100 | epot = 0 | etot = 100
Proc 0: pack_comm_kokkos() call start
Proc 0: pack_comm_kokkos() call end
Proc 0: pack_comm_kokkos() call start
Proc 0: pack_comm_kokkos() call end
10000  ekin = 100 | epot = 0 | etot = 100
     10000   66.666667      0              0              50             0.52083333   
Loop time of 1.86036 on 2 procs for 10000 steps with 2 atoms

Performance: 464426.368 tau/day, 5375.305 timesteps/s, 10.751 katom-step/s
78.2% CPU use with 2 MPI tasks x 1 OpenMP threads

MPI task timing breakdown:
Section |  min time  |  avg time  |  max time  |%varavg| %total
---------------------------------------------------------------
Pair    | 0.088514   | 0.10515    | 0.1218     |   5.1 |  5.65
Neigh   | 0.0036068  | 0.0037367  | 0.0038665  |   0.2 |  0.20
Comm    | 0.35083    | 0.35639    | 0.36195    |   0.9 | 19.16
Output  | 0.22373    | 0.56628    | 0.90883    |  45.5 | 30.44
Modify  | 0.29036    | 0.3165     | 0.34265    |   4.6 | 17.01
Other   |            | 0.5123     |            |       | 27.54

Nlocal:              1 ave           1 max           1 min
Histogram: 2 0 0 0 0 0 0 0 0 0
Nghost:           21.5 ave          26 max          17 min
Histogram: 1 0 0 0 0 0 0 0 0 1
Neighs:            0.5 ave           1 max           0 min
Histogram: 1 0 0 0 0 0 0 0 0 1

Total # of neighbors = 1
Ave neighs/atom = 0.5
Neighbor list builds = 132
Dangerous builds = 0
System init for write_data ...
Generated 0 of 0 mixed pair_coeff terms from geometric mixing rule
Proc 0: pack_exchange_kokkos() call start
Proc 0: pack_exchange_kokkos() call start
Proc 0: pack_exchange_kokkos() call start
Proc 0: pack_border_kokkos() call start
Proc 0: pack_border_kokkos() call end
Proc 0: unpack_border_kokkos() call start
Proc 0: unpack_border_kokkos() call end
Proc 0: pack_border_kokkos() call start
Proc 0: pack_border_kokkos() call end
Proc 0: unpack_border_kokkos() call start
Proc 0: unpack_border_kokkos() call end
Proc 0: pack_border_kokkos() call start
Proc 0: pack_border_kokkos() call end
Proc 0: unpack_border_kokkos() call start
Proc 0: unpack_border_kokkos() call end
Proc 0: pack_border_kokkos() call start
Proc 0: pack_border_kokkos() call end
Proc 0: unpack_border_kokkos() call start
Proc 0: unpack_border_kokkos() call end
Proc 0: pack_border_kokkos() call start
Proc 0: pack_border_kokkos() call end
Proc 0: unpack_border_kokkos() call start
Proc 0: unpack_border_kokkos() call end
Proc 0: pack_border_kokkos() call start
Proc 0: pack_border_kokkos() call end
Proc 0: unpack_border_kokkos() call start
Proc 0: unpack_border_kokkos() call end
Total wall time: 0:00:01
