LAMMPS data file via write_data, version 19 Nov 2024, timestep = 100000, units = lj

9261 atoms
1 atom types
9261 ellipsoids

0 23.113490742262385 xlo xhi
0 23.113490742262385 ylo yhi
0 23.113490742262385 zlo zhi

Atoms # ellipsoid

1 1 1 5.968310365946075 0.10281355824660642 0.3896744004957534 0.2927119838861261 0 0 0
810 1 1 5.968310365946075 2.5384558869918346 0.32465759144503575 0.6132741612102308 0 1 0
13 1 1 5.968310365946075 3.5232870130577263 0.6387992541994539 0.23479018002200477 0 0 0
17 1 1 5.968310365946075 4.539060137741735 0.05271240074257846 0.15194922207292166 0 0 0
3041 1 1 5.968310365946075 9.591805840164996 11.55397728393375 6.0871981147737015 0 0 0
55 1 1 5.968310365946075 14.025715838719218 0.4278889608142504 0.1545077284664777 0 0 0
63 1 1 5.968310365946075 15.995181092089707 0.4416725252785268 0.3157977079929402 0 0 0
75 1 1 5.968310365946075 19.002617633040025 0.3050609346956913 0.28035439605194573 0 0 0
802 1 1 5.968310365946075 22.157276872860518 0.3630479330696155 0.5009915393113046 -1 1 0
10 1 1 5.968310365946075 1.3772141245978047 0.9928777908225 0.4047674553421541 0 0 0
19 1 1 5.968310365946075 4.246039528736414 1.3202116027538136 0.6708058849575468 0 0 0
27 1 1 5.968310365946075 6.2771379818085205 1.3268870420764418 0.39962545521982856 0 0 0
3548 1 1 5.968310365946075 2.885349385028104 0.031886827821686836 9.897076861682734 0 0 0
43 1 1 5.968310365946075 10.345863635966392 0.8032051851426034 0.23491217149183646 0 0 0
47 1 1 5.968310365946075 12.086679228692649 0.924781567611104 0.28224234863397807 0 0 0
137 1 1 5.968310365946075 13.081131426085213 0.8692297382491575 0.7211081962829639 0 0 0
59 1 1 5.968310365946075 15.335488442210124 1.3408670877087963 0.2941459889649373 0 0 0
69 1 1 5.968310365946075 17.921826829759013 0.9578234314193805 0.3484540551183088 0 0 0
79 1 1 5.968310365946075 20.484890308782195 1.3028749046789054 0.4146612070543134 0 0 0
4 1 1 5.968310365946075 22.5987555538469 1.4393902028678163 0.1256325655276353 -1 0 0
4192 1 1 5.968310365946075 17.829588107980616 11.552559863093336 9.155504384822194 0 0 0
15 1 1 5.968310365946075 3.0238198057601897 1.662354670297593 0.08274430239478935 0 0 0
23 1 1 5.968310365946075 5.179400430305313 1.8602310160488043 0.15355362584470456 0 0 0
117 1 1 5.968310365946075 7.65286630835624 1.8406472618825878 0.05355252461579442 0 0 0
125 1 1 5.968310365946075 10.160427356666943 1.97646820458822 0.4570240630840107 0 0 0
127 1 1 5.968310365946075 11.164654694617832 1.556183402250069 0.3043130662293655 0 0 0
129 1 1 5.968310365946075 12.223131030788728 2.123594384452654 0.28472494058812203 0 0 0
134 1 1 5.968310365946075 13.458491422051633 1.8923861850692998 0.5291128788012556 0 0 0
149 1 1 5.968310365946075 16.683134613339934 1.7189987372003432 0.16293453224577314 0 0 0
153 1 1 5.968310365946075 18.19944938101014 2.068312419870575 0.19665691100167695 0 0 0
157 1 1 5.968310365946075 19.31273329152367 1.581911575738708 0.39904114966635357 0 0 0
84 1 1 5.968310365946075 21.604290241158484 1.4113172805326315 0.5567214274214403 0 0 0
97 1 1 5.968310365946075 3.0280417832281668 2.7839264899675653 0.22572003746214642 0 0 0
101 1 1 5.968310365946075 4.658281656499836 2.720640880652608 0.5821977020202682 0 0 0
110 1 1 5.968310365946075 6.765011346755086 2.527111937750065 0.11197669107561585 0 0 0
141 1 1 5.968310365946075 14.580742044045982 2.3899859388007587 0.6811243729397061 0 0 0
145 1 1 5.968310365946075 15.765636135076994 2.2546799552491215 0.6956097127509238 0 0 0
151 1 1 5.968310365946075 17.022627819518505 2.8410833100031314 0.6517255810249319 0 0 0
161 1 1 5.968310365946075 20.06341431950178 2.4150109371636916 0.4938135859829484 0 0 0
165 1 1 5.968310365946075 21.25328250964563 2.439517447921421 0.3327381262290603 0 0 0
92 1 1 5.968310365946075 0.17465189275739174 3.4556885283427627 0.5216248612081319 0 0 0
123 1 1 5.968310365946075 10.375060112611411 3.157240187557094 0.514033500572364 0 0 0
131 1 1 5.968310365946075 11.805444317945694 3.3044228607296615 0.05474245964306142 0 0 0
140 1 1 5.968310365946075 15.104221209630946 3.307264227195664 0.33971631808602687 0 0 0
4843 1 1 5.968310365946075 21.07293043592889 0.06872894458614977 9.511342807103823 0 1 0
155 1 1 5.968310365946075 18.007579985174818 3.457142389991641 0.666281077832131 0 0 0
159 1 1 5.968310365946075 19.054831883489328 2.9964619312059053 0.4310134708022646 0 0 0
163 1 1 5.968310365946075 20.140386976851268 3.5296878204446793 0.3381067886586096 0 0 0
88 1 1 5.968310365946075 22.186062124185003 3.1676540369140986 0.33056800893259597 -1 0 0
174 1 1 5.968310365946075 1.435576982437817 3.7005747959762534 0.24960032444165645 0 0 0
104 1 1 5.968310365946075 3.7060769095423707 3.693415429819935 0.5214067038579908 0 0 0
197 1 1 5.968310365946075 7.808830609457309 4.169022042925342 0.3255407139600612 0 0 0
205 1 1 5.968310365946075 9.58783486039595 4.107337492601843 0.657825916236204 0 0 0
213 1 1 5.968310365946075 11.052857745708009 4.109489542914677 0.5742711492026378 0 0 0
139 1 1 5.968310365946075 13.030322220262978 3.785356855232334 0.40913871453282474 0 0 0
221 1 1 5.968310365946075 14.09205282056499 3.8776184538613765 0.5767612972106108 0 0 0
171 1 1 5.968310365946075 0.059045673021151816 4.602655878318365 0.11576338518774262 0 0 0
182 1 1 5.968310365946075 3.0135597128256557 4.567601411330304 0.3156855147354543 0 0 0
8569 1 1 5.968310365946075 5.144602745866131 4.7204867443020575 0.30014804532454703 0 0 1
215 1 1 5.968310365946075 11.991079325678607 4.807263985187118 0.04079957437156982 0 0 0
225 1 1 5.968310365946075 15.062944707705672 4.5229597051175565 0.19659032742940713 0 0 0
233 1 1 5.968310365946075 16.736023888559522 4.791834534182245 0.5909970554678186 0 0 0
237 1 1 5.968310365946075 17.82511648123377 4.526100350519098 0.3312794968649567 0 0 0
246 1 1 5.968310365946075 21.04584085777793 4.557000251703554 0.34862770424537437 0 0 0
8583 1 1 5.968310365946075 8.679702904779443 5.6767253255218835 0.3810952364846807 0 0 1
207 1 1 5.968310365946075 10.04445580737629 5.08078198732198 0.2512938279621101 0 0 0
294 1 1 5.968310365946075 11.304457360820505 5.659364928803949 0.7188333812356936 0 0 0
297 1 1 5.968310365946075 12.496211365835903 5.768973119275629 0.27336909628023986 0 0 0
3632 1 1 5.968310365946075 18.091371209910676 0.0756347721303694 9.369900327929283 0 0 0
239 1 1 5.968310365946075 17.881462741437822 5.628814913336253 0.6529336629166922 0 0 0
8631 1 1 5.968310365946075 21.986524962100894 5.26320144166908 0.11592503549764718 0 0 1
257 1 1 5.968310365946075 0.7854809765912028 6.455454764938383 0.14983772353159813 0 0 0
176 1 1 5.968310365946075 1.6939775798209444 5.766530265792786 0.38869519535113867 0 0 0
1061 1 1 5.968310365946075 2.631059895137923 6.332456876401242 0.5158170988935009 0 0 0
273 1 1 5.968310365946075 5.352750656862867 6.380520586528074 0.35209442756379633 0 0 0
289 1 1 5.968310365946075 10.326034785616843 6.277946867975153 0.21939631228793094 0 0 0
223 1 1 5.968310365946075 13.61249813497438 5.795709761355123 0.4156056678813554 0 0 0
310 1 1 5.968310365946075 15.762966827547107 6.120919919231357 0.5781890401825358 0 0 0
8701 1 1 5.968310365946075 18.880834504513885 6.200296526415563 0.6414416124304649 0 0 1
325 1 1 5.968310365946075 19.85592059830645 6.530478429881343 0.14502406375582622 0 0 0
330 1 1 5.968310365946075 21.96425540614211 6.242040946449009 0.6718200897365536 0 0 0
252 1 1 5.968310365946075 22.97750817413622 5.864065191761956 0.12643721965590962 0 0 0
269 1 1 5.968310365946075 4.236442008461937 6.562994741072119 0.12774521501815436 0 0 0
278 1 1 5.968310365946075 6.4093142766894955 7.0361335070051325 0.3952538057204237 0 0 0
282 1 1 5.968310365946075 7.73642332910186 6.64936568601237 0.28160160622281755 0 0 0
8675 1 1 5.968310365946075 10.919021906791565 7.223015654534332 0.176571203469251 0 0 1
299 1 1 5.968310365946075 11.78291676666026 6.5790552017996395 0.33140300778461235 0 0 0
307 1 1 5.968310365946075 13.863449278087542 7.026305302264401 0.640032126336338 0 0 0
313 1 1 5.968310365946075 16.535807654520976 7.140609681136456 0.2224762027064121 0 0 0
317 1 1 5.968310365946075 17.4097116619308 6.588201267047947 0.6230567366585501 0 0 0
333 1 1 5.968310365946075 21.075676568365328 6.614939573481071 0.14553010855733017 0 0 0
255 1 1 5.968310365946075 22.87511539724378 6.971335353896499 0.6071179526149219 -1 0 0
259 1 1 5.968310365946075 0.9071489579281059 7.543747819983309 0.3066694368314249 0 0 0
180 1 1 5.968310365946075 2.1481646394159193 7.361728487219754 0.2884726673195921 0 0 0
272 1 1 5.968310365946075 4.133393802413169 7.801309025719354 0.39847657720170965 0 0 0
284 1 1 5.968310365946075 8.51293481386092 7.501712743174642 0.6041862719418398 0 0 0
291 1 1 5.968310365946075 9.923582467890242 7.518831451848046 0.5342779427548235 0 0 0
304 1 1 5.968310365946075 12.48615544226848 7.457581843623606 0.6375231996879188 0 0 0
311 1 1 5.968310365946075 14.585065890619465 7.771352270372291 0.0710139650693553 0 0 0
8703 1 1 5.968310365946075 19.07480852121381 7.5476567721631 0.38290852269152015 0 0 1
8705 1 1 5.968310365946075 20.324513006235712 7.542124340673357 0.03469651877054099 0 0 1
335 1 1 5.968310365946075 21.307476623299294 7.7144102442230595 0.5982105839328786 0 0 0
262 1 1 5.968310365946075 1.8717777584678903 8.41866796327344 0.0480705727507135 0 0 0
368 1 1 5.968310365946075 5.128016458125372 8.568266255829585 0.5984050428797646 0 0 0
403 1 1 5.968310365946075 12.720768089194019 8.469643419117267 0.13379767510053941 0 0 0
1185 1 1 5.968310365946075 13.702918914383169 8.108922144261864 0.7345992489619461 0 0 0
315 1 1 5.968310365946075 15.693556005567972 8.229500226061443 0.2767418066135266 0 0 0
428 1 1 5.968310365946075 16.925843784523405 8.621746368137133 0.7644952283200994 0 0 0
323 1 1 5.968310365946075 18.130105942501864 8.304502058042608 0.6438156900820006 0 0 0
458 1 1 5.968310365946075 22.38549252995729 7.992073099980211 0.4265577312277243 0 0 0
356 1 1 5.968310365946075 2.7577293092621704 9.125639344963194 0.28576595541698785 0 0 0
362 1 1 5.968310365946075 3.9661470865632746 9.124209862218125 0.3360088585781188 0 0 0
373 1 1 5.968310365946075 6.920762501512736 8.863157435630853 0.0390844822745472 0 0 0
376 1 1 5.968310365946075 7.734709520128947 9.381303814164523 0.6159900657932539 0 0 0
399 1 1 5.968310365946075 11.431773157711483 8.98097295985006 0.1350841076455668 0 0 0
421 1 1 5.968310365946075 15.18267669147557 9.200153220964367 0.029433987119353234 0 0 0
440 1 1 5.968310365946075 17.83855029467122 9.382984843822321 0.462988616739392 0 0 0
445 1 1 5.968310365946075 19.065280227830804 9.108450833110158 0.4420992428130225 0 0 0
451 1 1 5.968310365946075 20.44331073350881 9.301438039836844 0.3637350406255114 0 0 0
338 1 1 5.968310365946075 22.527473320728326 9.089691241232842 0.6427839040128811 -1 0 0
344 1 1 5.968310365946075 0.41445047548336716 9.693779978595785 0.6552224008494582 0 0 0
370 1 1 5.968310365946075 5.415865268441994 9.856359837459582 0.48895775381429873 0 0 0
375 1 1 5.968310365946075 6.511370253410745 9.819009468110991 0.6235757464327087 0 0 0
406 1 1 5.968310365946075 11.444357005486633 10.0322876282396 0.5666243033758191 0 0 0
411 1 1 5.968310365946075 12.460733357219382 9.54430592561424 0.28798625358784846 0 0 0
416 1 1 5.968310365946075 14.34257951170449 9.923457471867648 0.4175371384263176 0 0 0
427 1 1 5.968310365946075 16.152109842744128 9.803938410860447 0.10581349160252138 0 0 0
346 1 1 5.968310365946075 1.149876458958031 10.593918642886258 0.6465048339743685 0 0 0
359 1 1 5.968310365946075 3.269336190023056 10.13033512575378 0.09044243830245514 0 0 0
363 1 1 5.968310365946075 4.451507509942956 10.582639795515526 0.5681928453562092 0 0 0
377 1 1 5.968310365946075 7.394145823043368 10.424604201942199 0.33470386682888786 0 0 0
382 1 1 5.968310365946075 8.528880410297232 10.177105646835388 0.43245608079286285 0 0 0
495 1 1 5.968310365946075 9.559349629963707 10.302215651578612 0.024622195904827535 0 0 0
419 1 1 5.968310365946075 13.324065191576242 10.411596448566904 0.550558370905427 0 0 0
435 1 1 5.968310365946075 17.01705467796213 10.351486332137878 0.39110946857713197 0 0 0
441 1 1 5.968310365946075 18.927801023865783 10.288075233356501 0.4829617785542026 0 0 0
461 1 1 5.968310365946075 22.567727557009643 10.25853677059723 0.2612680695608496 0 0 0
468 1 1 5.968310365946075 0.6428971752871224 11.51456223869983 0.27361665542367775 0 0 0
354 1 1 5.968310365946075 1.796964093460673 11.399396802145777 0.08483298186752614 0 0 0
479 1 1 5.968310365946075 3.66887150617415 11.47806954700761 0.4133134785828894 0 0 0
366 1 1 5.968310365946075 5.562668632640266 10.983697222051248 0.608722682166347 0 0 0
383 1 1 5.968310365946075 8.30384352059754 11.3943294007119 0.4398910528960667 0 0 0
425 1 1 5.968310365946075 14.83376263332535 11.25586756785991 0.6913219297280092 0 0 0
429 1 1 5.968310365946075 15.926963898458386 10.936623163545551 0.19191095099726316 0 0 0
438 1 1 5.968310365946075 16.843931867968532 11.39354718652292 0.709079697314027 0 0 0
443 1 1 5.968310365946075 18.394943534888345 11.259716706983781 0.1651003123670487 0 0 0
449 1 1 5.968310365946075 19.930024799706977 10.832707189374934 0.34297175173260597 0 0 0
8841 1 1 5.968310365946075 22.622165107409046 11.409258458850797 0.3211395203144065 0 0 1
26 1 1 5.968310365946075 6.520576715034047 0.18235243514459798 1.127682967739 0 0 0
29 1 1 5.968310365946075 7.669879070253046 0.3391154681552759 0.9087750688553877 0 0 0
36 1 1 5.968310365946075 9.121401193680995 0.614175794544236 0.9824296913406549 0 0 0
48 1 1 5.968310365946075 11.390526129952391 0.5349478688819522 1.0298068229287551 0 0 0
937 1 1 5.968310365946075 13.447510349293788 0.031024850808615806 1.4431363230044647 0 0 0
60 1 1 5.968310365946075 14.98607609451788 0.36893588332536775 0.78245699150333 0 0 0
945 1 1 5.968310365946075 16.044147030161756 0.11322930332532992 1.3576739984682302 0 0 0
67 1 1 5.968310365946075 17.026543563769717 0.5744843938421327 1.0502318958029535 0 0 0
959 1 1 5.968310365946075 19.967154066008288 0.7402827420443449 1.2035696354776397 0 0 0
80 1 1 5.968310365946075 20.990993102486904 0.396470295307186 0.9010242171579684 0 0 0
2 1 1 5.968310365946075 22.832688507325738 0.4229328823139936 1.3870684291878146 -1 0 0
8 1 1 5.968310365946075 0.3052296932346602 1.27728470184761 1.0479283366226477 0 0 0
22 1 1 5.968310365946075 5.405623372661605 1.1022303504116058 1.111543952495794 0 0 0
32 1 1 5.968310365946075 7.4043443628138395 1.4183786017246565 1.0742260880469583 0 0 0
44 1 1 5.968310365946075 10.486024108234488 1.2982667463919073 1.2989907028506387 0 0 0
56 1 1 5.968310365946075 14.329213438045526 1.2694840833618772 0.8941726940474084 0 0 0
64 1 1 5.968310365946075 16.17693066380686 1.2840208005619709 1.0278673913616203 0 0 0
72 1 1 5.968310365946075 18.586015536859254 0.9483028869370395 1.2426328154841217 0 0 0
12 1 1 5.968310365946075 2.121069066602253 1.5349232440474498 1.0065115070381707 0 0 0
118 1 1 5.968310365946075 8.529400476565652 1.601852768628913 0.7612737291167816 0 0 0
40 1 1 5.968310365946075 9.44052357771035 1.7099008741495474 1.3628143339350254 0 0 0
126 1 1 5.968310365946075 11.657354831411453 1.9270034079066243 1.318135686536186 0 0 0
150 1 1 5.968310365946075 17.587128094484367 1.842191414116015 1.0616038198525646 0 0 0
154 1 1 5.968310365946075 18.686650959223762 2.196449509320646 1.2331039987475412 0 0 0
76 1 1 5.968310365946075 19.864853280608422 1.8124754106076053 1.3497147916356735 0 0 0
90 1 1 5.968310365946075 0.8819350523702045 2.4084811161575743 0.9612002104836466 0 0 0
94 1 1 5.968310365946075 1.8514376770113807 2.8386655568829817 0.7892312264812077 0 0 0
100 1 1 5.968310365946075 2.7515843030254263 2.584387626448329 1.405691289112156 0 0 0
98 1 1 5.968310365946075 3.840793538855024 2.2341630880639487 1.236369325091212 0 0 0
105 1 1 5.968310365946075 5.728938185094133 2.281153535101484 1.0493246639873346 0 0 0
997 1 1 5.968310365946075 6.8416219826871245 2.3927022122881856 1.160204349511413 0 0 0
114 1 1 5.968310365946075 7.841604060909366 2.740131898391552 0.8223416417240555 0 0 0
120 1 1 5.968310365946075 9.280939940319174 2.6872412314714604 0.7459440818657812 0 0 0
122 1 1 5.968310365946075 10.384265793791192 2.519911866326261 1.4100211542698862 0 0 0
162 1 1 5.968310365946075 20.77678439551174 2.492709936163693 1.3431296434203706 0 0 0
166 1 1 5.968310365946075 21.842727937159797 2.420450580658363 1.2806440433500954 0 0 0
86 1 1 5.968310365946075 22.854275143793032 2.331921271726398 0.8039425520088379 -1 0 0
103 1 1 5.968310365946075 5.65831713452156 3.4285967278891882 0.8902172567442992 0 0 0
111 1 1 5.968310365946075 6.785739060023186 3.583975710456245 0.6806202898156578 0 0 0
201 1 1 5.968310365946075 8.591039406726306 3.557286961031861 0.9805303720376778 0 0 0
132 1 1 5.968310365946075 11.424961914128032 3.1415971051042177 1.1585663151558014 0 0 0
135 1 1 5.968310365946075 12.4955958532853 3.0304160218553955 1.0261232836296965 0 0 0
138 1 1 5.968310365946075 13.540110486511788 2.9025320728309496 0.8329297023429996 0 0 0
158 1 1 5.968310365946075 19.601551958773804 2.893225967235432 1.396591230488494 0 0 0
164 1 1 5.968310365946075 21.209131363372244 3.6288544788879804 0.9882595985208166 0 0 0
170 1 1 5.968310365946075 0.17478735224435693 4.310616713674546 1.2545540679787879 0 0 0
96 1 1 5.968310365946075 2.56549868548057 3.7135634751125295 0.925610013662863 0 0 0
189 1 1 5.968310365946075 4.638790723725422 3.9661363894925503 0.9513480557169733 0 0 0
1081 1 1 5.968310365946075 7.569586634058146 3.7364832605986615 1.425883486128889 0 0 0
136 1 1 5.968310365946075 12.11744406465642 4.079679205089593 1.012305331576606 0 0 0
226 1 1 5.968310365946075 14.941091970888285 4.066535705424577 1.3073946488789672 0 0 0
230 1 1 5.968310365946075 15.95749562670431 3.934615888556985 0.7809420648146658 0 0 0
234 1 1 5.968310365946075 17.055575471856738 3.897772442525994 1.1901339926981516 0 0 0
238 1 1 5.968310365946075 18.198782246232376 4.375757590526746 1.3622522747214165 0 0 0
241 1 1 5.968310365946075 19.453165888989517 4.107252208909386 1.122446844913631 0 0 0
168 1 1 5.968310365946075 22.257650680988533 4.163265501091254 0.9040600934503459 0 0 0
1059 1 1 5.968310365946075 1.6343478952684312 4.7277514456618945 0.9916767422933602 0 0 0
1065 1 1 5.968310365946075 3.4124780193892335 4.447561738362479 1.4020793725467178 0 0 0
188 1 1 5.968310365946075 4.3385853266472925 5.064269770963588 0.9054651432236 0 0 0
194 1 1 5.968310365946075 6.959454986132594 4.856542485705789 1.0369690114589625 0 0 0
195 1 1 5.968310365946075 8.5144567503701 4.645843966040339 1.1125848249948758 0 0 0
218 1 1 5.968310365946075 13.285645482754614 4.910432472789584 0.9607745945007675 0 0 0
227 1 1 5.968310365946075 14.37353639571116 5.001934678337104 1.0408645083954418 0 0 0
243 1 1 5.968310365946075 18.95658304196238 5.067077636287458 0.7242600471507274 0 0 0
245 1 1 5.968310365946075 20.0770764844684 5.004423044337505 0.7691737287584379 0 0 0
172 1 1 5.968310365946075 0.6115118222158434 5.253614768206932 0.8452784041639619 0 0 0
178 1 1 5.968310365946075 2.6346385110629744 5.260402408025055 1.2328452811070352 0 0 0
192 1 1 5.968310365946075 5.903709150059507 5.346470984543869 0.926809777049983 0 0 0
286 1 1 5.968310365946075 7.770095161775177 5.580089541319203 1.154517871362295 0 0 0
203 1 1 5.968310365946075 9.362220625627062 5.45068421347065 1.269317746012755 0 0 0
216 1 1 5.968310365946075 12.285430420254519 5.328083350629777 1.2725366845953574 0 0 0
232 1 1 5.968310365946075 15.503103730455361 5.045714298769431 1.0713415980452154 0 0 0
250 1 1 5.968310365946075 22.504735452214163 5.279093681049287 1.1248266555369881 0 0 0
334 1 1 5.968310365946075 0.4883804638612822 6.238193655061431 1.3794894402571978 1 0 0
184 1 1 5.968310365946075 3.5937704720188033 5.942855391344414 0.8654858190111397 0 0 0
270 1 1 5.968310365946075 4.630688241171477 6.407461584143736 1.1970732120947454 0 0 0
1156 1 1 5.968310365946075 5.787718237423215 6.281505593520664 1.3786466717905337 0 0 0
1159 1 1 5.968310365946075 6.805127203289582 5.951779078721273 0.638190225577853 0 0 0
208 1 1 5.968310365946075 10.392587671499841 5.916984002011084 1.2629649224571509 0 0 0
220 1 1 5.968310365946075 12.79073045408953 6.43052952095485 1.2330574523899613 0 0 0
306 1 1 5.968310365946075 14.542046997232253 6.243024444052135 0.9888856755502403 0 0 0
236 1 1 5.968310365946075 16.61059693923292 5.709263031657487 1.1350250688441508 0 0 0
244 1 1 5.968310365946075 19.806295649171023 6.049682903373544 1.2605044210502598 0 0 0
247 1 1 5.968310365946075 20.82161342077464 5.861779250137845 0.9397073892006107 0 0 0
258 1 1 5.968310365946075 1.3973446233200089 6.842951912377687 1.0624252586894456 0 0 0
266 1 1 5.968310365946075 3.3892485565771198 7.157710797213863 0.9452738189768807 0 0 0
200 1 1 5.968310365946075 7.702734749985534 6.965127196818154 1.4004497856575635 0 0 0
288 1 1 5.968310365946075 9.234694719876979 6.4905114711519 0.8867392945601814 0 0 0
290 1 1 5.968310365946075 10.60177534603897 7.10325527865656 1.3609657151743673 0 0 0
312 1 1 5.968310365946075 15.2890928573439 7.046281012608328 0.7651171736144253 0 0 0
314 1 1 5.968310365946075 16.27152754079148 6.736089694423636 1.387277359936021 0 0 0
321 1 1 5.968310365946075 18.108623163815274 7.1065798430356075 1.2926490535408819 0 0 0
329 1 1 5.968310365946075 21.210161583206233 6.770724517630883 1.3466454139721626 0 0 0
254 1 1 5.968310365946075 0.45244260300526234 7.5105226674156915 1.3210346095172327 0 0 0
274 1 1 5.968310365946075 5.372712139528416 7.4869128520031 0.8991541822398812 0 0 0
1163 1 1 5.968310365946075 6.646112648055127 7.365284687557964 1.4695396709697734 0 0 0
1165 1 1 5.968310365946075 7.456225737399964 7.89913720720241 0.7195224717920666 0 0 0
386 1 1 5.968310365946075 9.212185044132116 7.855507588713358 1.4361604284820444 0 0 0
302 1 1 5.968310365946075 13.270864216303274 7.459681408109341 1.514509053703603 0 0 0
308 1 1 5.968310365946075 14.633862267431118 7.762201811080165 1.3252038936209445 0 0 0
316 1 1 5.968310365946075 15.9940466689703 7.888885523310401 1.2716828091903873 0 0 0
320 1 1 5.968310365946075 17.10091959978299 7.597459104569803 1.1746238739533208 0 0 0
331 1 1 5.968310365946075 19.94771047404498 7.2109075440884025 1.039397688347663 0 0 0
336 1 1 5.968310365946075 22.123859433279915 7.417939010569407 1.4225694194039142 0 0 0
256 1 1 5.968310365946075 0.8320149085746936 8.569164188921173 1.0899562984636841 0 0 0
260 1 1 5.968310365946075 1.725493604530135 7.972514696601812 1.0952993336221746 0 0 0
268 1 1 5.968310365946075 2.8742931331452826 8.176837486321133 0.833475329520048 0 0 0
1243 1 1 5.968310365946075 3.938920099305719 8.42935263791939 1.2871640370707382 0 0 0
280 1 1 5.968310365946075 6.204670030725234 8.217447175971596 0.7734262178306274 0 0 0
380 1 1 5.968310365946075 8.218502433572647 8.540763010282207 1.2101643205725692 0 0 0
292 1 1 5.968310365946075 10.394749271133952 8.189893300501558 1.294152779573061 0 0 0
295 1 1 5.968310365946075 11.422424182919482 7.879498054931785 1.0204729252730624 0 0 0
327 1 1 5.968310365946075 18.93910929648434 7.824318634313897 1.5017434696437786 0 0 0
8831 1 1 5.968310365946075 19.869467339834667 8.308936066085199 0.7998628550192486 0 0 1
332 1 1 5.968310365946075 21.470213830480887 8.748938025284046 1.0096053873794297 0 0 0
264 1 1 5.968310365946075 1.776564100605362 9.220918346406277 0.9747306887344225 0 0 0
1237 1 1 5.968310365946075 3.259585380467963 9.412789241432266 1.231555679773665 0 0 0
1249 1 1 5.968310365946075 5.806305570889746 9.179487374231936 1.2977955143239785 0 0 0
374 1 1 5.968310365946075 7.014733848235551 8.86220199398302 1.2271694624485063 0 0 0
385 1 1 5.968310365946075 9.210240229826248 8.85049905003676 0.8150187039029595 0 0 0
398 1 1 5.968310365946075 10.54467261857671 9.215600007984337 0.7896902636367561 0 0 0
410 1 1 5.968310365946075 11.60140350526318 9.11278825877621 1.2181321591060232 0 0 0
415 1 1 5.968310365946075 14.72717942893365 8.760804013122446 0.9534348367687706 0 0 0
422 1 1 5.968310365946075 15.881105693090104 9.03194683949203 1.0959557612223076 0 0 0
434 1 1 5.968310365946075 17.481228551938443 9.21875213064463 1.51261590406066 0 0 0
1239 1 1 5.968310365946075 4.642873936795311 9.464820933371625 1.3777213987006147 0 0 0
1265 1 1 5.968310365946075 7.315036865929964 10.071421954100437 1.3534421778420858 0 0 0
392 1 1 5.968310365946075 9.729388795221356 9.96599317741895 1.212413431987188 0 0 0
409 1 1 5.968310365946075 13.539803854653677 9.280895664255622 0.7739822638432943 0 0 0
430 1 1 5.968310365946075 15.381841454778563 10.089828449804735 0.8841699919075966 0 0 0
448 1 1 5.968310365946075 19.685991007849864 9.92975370727387 1.246509997538729 0 0 0
453 1 1 5.968310365946075 20.80413446441181 10.135721684418115 1.028259865469435 0 0 0
342 1 1 5.968310365946075 0.13069434614578843 10.738160035050905 1.0171233999748237 0 0 0
358 1 1 5.968310365946075 2.2423346353351477 10.636973063008874 0.8884589558070051 0 0 0
1241 1 1 5.968310365946075 3.5108070805752125 10.529457690031762 1.1694920083152522 0 0 0
396 1 1 5.968310365946075 10.54799084360877 10.683303279077318 0.8120756393483325 0 0 0
442 1 1 5.968310365946075 18.007888030159393 10.557811660072455 0.9213805006819117 0 0 0
456 1 1 5.968310365946075 21.76979070367616 10.732000486130724 0.9865853549184267 0 0 0
348 1 1 5.968310365946075 1.0558736022299642 11.37129490824289 1.4918693936968317 0 0 0
360 1 1 5.968310365946075 2.778052810555053 11.456488199593778 1.3822286071409233 0 0 0
1369 1 1 5.968310365946075 6.5325709339764275 11.11483107782435 1.061067254235454 0 0 0
378 1 1 5.968310365946075 8.136290274341052 10.838877931573125 1.4290419995231356 0 0 0
388 1 1 5.968310365946075 9.335599971512249 11.009392413223136 0.8783564338042585 0 0 0
418 1 1 5.968310365946075 12.265660332892578 11.029125444795264 0.8195267494227313 0 0 0
432 1 1 5.968310365946075 15.931999762502308 10.964981064681039 1.3492037078874013 0 0 0
532 1 1 5.968310365946075 19.159846048816576 11.304623872258897 1.0832351303366936 0 0 0
539 1 1 5.968310365946075 20.924131114088848 11.40747930147925 0.5600310772379851 0 0 0
887 1 1 5.968310365946075 0.5981163372972349 0.13976246349445787 2.0251784560583506 0 0 0
897 1 1 5.968310365946075 1.9186613478904098 0.5287602852978267 1.6466196797819284 0 0 0
899 1 1 5.968310365946075 5.074879305921661 0.1713302492971503 1.5726986771396285 0 0 0
903 1 1 5.968310365946075 6.0908718141146245 0.18429415904578378 2.1465572262851556 0 0 0
907 1 1 5.968310365946075 7.199412496899053 0.19660030149507046 2.016819205590442 0 0 0
919 1 1 5.968310365946075 10.261823211863378 0.24719271358811562 1.6901297062473835 0 0 0
52 1 1 5.968310365946075 12.52910698843362 0.7732561491887866 1.6505841646633939 0 0 0
68 1 1 5.968310365946075 17.608267020941863 0.5243949321249577 1.9659635696445839 0 0 0
962 1 1 5.968310365946075 20.739463485412905 0.23391387846116518 2.007723947297149 0 0 0
965 1 1 5.968310365946075 21.74078449745565 0.38100113936211194 1.7331626102823052 0 0 0
893 1 1 5.968310365946075 1.1452617277224102 1.4111336032601514 1.6962613212534652 0 0 0
16 1 1 5.968310365946075 3.0408441905232224 0.8538019036075045 1.6190173075613303 0 0 0
20 1 1 5.968310365946075 4.250359084808583 0.8517690347725637 1.7332677229517282 0 0 0
28 1 1 5.968310365946075 6.36154728411446 1.193711830625824 1.6995829721366087 0 0 0
30 1 1 5.968310365946075 8.151820358440489 0.7723316114648999 1.8125250398554047 0 0 0
921 1 1 5.968310365946075 9.299840140700356 0.8950099309488638 2.1068267490877215 0 0 0
929 1 1 5.968310365946075 11.568538437064841 1.1061550332717376 2.104457529148403 0 0 0
1023 1 1 5.968310365946075 14.09733503013932 0.9841116855055141 1.937073763735916 0 0 0
941 1 1 5.968310365946075 15.170905298602174 0.9030534721571826 1.7402209651682832 0 0 0
1027 1 1 5.968310365946075 16.236173594571294 1.0569794709145566 2.070907558296137 0 0 0
957 1 1 5.968310365946075 19.361774983797183 1.219040572696239 2.1084201639101647 0 0 0
961 1 1 5.968310365946075 20.986867719559513 1.3508479807408125 1.767663203691956 0 0 0
102 1 1 5.968310365946075 4.885367490805348 1.823916318402557 1.717951644846934 0 0 0
995 1 1 5.968310365946075 8.067185266225671 2.067402133148265 1.7602608916046025 0 0 0
51 1 1 5.968310365946075 12.721952733078655 1.8385577730216456 1.4231219555761194 0 0 0
1015 1 1 5.968310365946075 13.848692240481132 2.0034011405258814 1.5839071581560045 0 0 0
142 1 1 5.968310365946075 15.020550708239423 2.0251732876474517 1.657213224136641 0 0 0
949 1 1 5.968310365946075 17.150691135339542 1.6277807810341296 2.047525743053086 0 0 0
953 1 1 5.968310365946075 18.26668052964597 1.6383123437874503 2.1801225846732426 0 0 0
967 1 1 5.968310365946075 22.390041039077683 1.4905892928524036 1.4148871374945335 -1 0 0
971 1 1 5.968310365946075 0.44936158828019834 2.7357443329188365 1.9453862972964715 0 0 0
975 1 1 5.968310365946075 1.6794135769404814 2.4972697200787763 1.8464697450966003 0 0 0
1021 1 1 5.968310365946075 13.326488924046838 2.843682537453886 2.066952607545262 0 0 0
146 1 1 5.968310365946075 16.506679657537653 2.400604975385435 1.4939515846800917 0 0 0
152 1 1 5.968310365946075 17.58593861549031 2.864621611514599 1.7540624636311921 0 0 0
973 1 1 5.968310365946075 1.062049241623796 3.5754123991369653 1.4826498824610368 0 0 0
1063 1 1 5.968310365946075 3.7702544981876147 3.4261399430499084 1.6057700994017294 0 0 0
108 1 1 5.968310365946075 4.800000692581751 3.01301649925537 1.8485767383219496 0 0 0
116 1 1 5.968310365946075 8.306781663831755 3.1394665267095085 2.079779046238872 0 0 0
202 1 1 5.968310365946075 9.436810954604884 3.234437257876192 1.6979486178571663 0 0 0
130 1 1 5.968310365946075 12.253765298925336 3.33041983951134 2.0176825460936474 0 0 0
144 1 1 5.968310365946075 14.398753615406903 3.0519609179551557 1.556133539279174 0 0 0
148 1 1 5.968310365946075 15.573108395913962 3.083470084355242 1.4043234711069998 0 0 0