# LAMMPS data file written by OVITO Basic 3.9.2

499 atoms
498 bonds
1 atom types
1 bond types
249 ellipsoids

-50.0 50.0 xlo xhi
-50.0 50.0 ylo yhi
-50.0 50.0 zlo zhi

Masses

1 1.0

Atoms  # hybrid bond ellipsoid

1 1 5.2091983518 -2.4663045646 -1.1386332433 1 0 238.7324039657 0 0 0
2 1 6.202814293 -2.6434448986 -0.9244476343 1 0 238.7324039657 0 0 0
3 1 7.1298408388 -2.7378597283 -1.042456703 1 0 238.7324039657 0 0 0
4 1 6.9054845158 -2.043587915 -0.3591317592 1 0 238.7324039657 0 0 0
5 1 6.8342084749 -1.8366588687 0.4936601224 1 0 238.7324039657 0 0 0
6 1 5.984812349 -2.1604119068 0.9346672056 1 0 238.7324039657 0 0 0
7 1 4.9239602613 -1.968260526 1.1479475622 1 0 238.7324039657 0 0 0
8 1 4.3445350165 -1.890265238 0.3400457709 1 0 238.7324039657 0 0 0
9 1 4.0968569854 -0.8246872823 -0.0826054757 1 0 238.7324039657 0 0 0
10 1 4.6000324413 -0.1511195304 0.4952227692 1 0 238.7324039657 0 0 0
11 1 4.0337456751 -0.5245256073 1.20860556 1 0 238.7324039657 0 0 0
12 1 3.1380306802 -0.9674908877 1.3414168976 1 0 238.7324039657 0 0 0
13 1 2.435392749 -0.2685746448 1.1627058347 1 0 238.7324039657 0 0 0
14 1 1.801024089 0.1534337956 1.826171964 1 0 238.7324039657 0 0 0
15 1 2.1455594338 1.0514156767 2.2728732854 1 0 238.7324039657 0 0 0
16 1 2.3473579709 1.6966411015 2.9486425758 1 0 238.7324039657 0 0 0
17 1 2.0984003017 2.0353961976 3.9085903736 1 0 238.7324039657 0 0 0
18 1 1.1414234299 2.3311182447 3.5315612175 1 0 238.7324039657 0 0 0
19 1 0.7584257661 2.3911644286 2.609955561 1 0 238.7324039657 0 0 0
20 1 0.9072662402 3.3086741009 2.3891015449 1 0 238.7324039657 0 0 0
21 1 1.0773793017 4.0082750198 1.6638578794 1 0 238.7324039657 0 0 0
22 1 1.356652418 4.9555023736 1.4365848171 1 0 238.7324039657 0 0 0
23 1 0.5161914512 5.4503837235 1.3718671163 1 0 238.7324039657 0 0 0
24 1 0.2539228857 4.5307969785 0.828688942 1 0 238.7324039657 0 0 0
25 1 0.3251823609 5.46945759 0.4887179942 1 0 238.7324039657 0 0 0
26 1 0.4820043088 5.490114779 -0.5025180414 1 0 238.7324039657 0 0 0
27 1 0.2126966258 5.958237229 -1.2497826579 1 0 238.7324039657 0 0 0
28 1 -0.2820728752 5.8597700519 -1.9468010474 1 0 238.7324039657 0 0 0
29 1 -0.8637760888 5.4581287831 -2.6211742818 1 0 238.7324039657 0 0 0
30 1 -0.8548873226 5.9905877345 -3.487048358 1 0 238.7324039657 0 0 0
31 1 -0.9133217881 6.9390057424 -3.4049784145 1 0 238.7324039657 0 0 0
32 1 -1.3499412015 6.8109810368 -4.2836892584 1 0 238.7324039657 0 0 0
33 1 -0.661065346 6.2808773126 -4.7136294913 1 0 238.7324039657 0 0 0
34 1 -0.2681463603 5.845389573 -5.5910601038 1 0 238.7324039657 0 0 0
35 1 -0.4500086587 6.0053233994 -6.5240740074 1 0 238.7324039657 0 0 0
36 1 -1.4186347641 6.2180070166 -6.209325597 1 0 238.7324039657 0 0 0
37 1 -2.3284292415 6.2306048208 -6.5589268639 1 0 238.7324039657 0 0 0
38 1 -1.8650449967 7.0388734325 -6.8999709604 1 0 238.7324039657 0 0 0
39 1 -1.00531341 6.7918705254 -7.3043730972 1 0 238.7324039657 0 0 0
40 1 -0.0393384003 6.3098578166 -7.4544795594 1 0 238.7324039657 0 0 0
41 1 0.7182710336 5.642208926 -7.596022995 1 0 238.7324039657 0 0 0
42 1 -0.0889569159 5.3062078921 -7.9740925749 1 0 238.7324039657 0 0 0
43 1 0.3670994788 4.438338781 -8.0107146681 1 0 238.7324039657 0 0 0
44 1 0.9180625796 3.7944999099 -7.5030324723 1 0 238.7324039657 0 0 0
45 1 1.5744676887 4.2148201331 -8.1586234544 1 0 238.7324039657 0 0 0
46 1 2.1185446047 3.6208386074 -7.663760076 1 0 238.7324039657 0 0 0
47 1 2.6990399378 4.3093496361 -7.5072340243 1 0 238.7324039657 0 0 0
48 1 3.3868736256 3.591563499 -7.3823306903 1 0 238.7324039657 0 0 0
49 1 2.9005465236 2.8060121754 -6.8533521362 1 0 238.7324039657 0 0 0
50 1 3.7520918863 2.4962588077 -6.6759267083 1 0 238.7324039657 0 0 0
51 1 3.7044854666 2.6717861027 -5.6440019159 1 0 238.7324039657 0 0 0
52 1 3.1356894484 3.4490625022 -5.8995835189 1 0 238.7324039657 0 0 0
53 1 2.9162242383 4.4540193448 -5.6052969137 1 0 238.7324039657 0 0 0
54 1 2.7001832566 5.0436919174 -4.8548419059 1 0 238.7324039657 0 0 0
55 1 2.120804177 5.1756504935 -4.120829126 1 0 238.7324039657 0 0 0
56 1 1.6138202437 5.2649799404 -3.210551046 1 0 238.7324039657 0 0 0
57 1 1.198203562 5.0785875274 -2.3257947466 1 0 238.7324039657 0 0 0
58 1 0.8339104032 4.3823154336 -1.8368229913 1 0 238.7324039657 0 0 0
59 1 0.2158993134 4.1330702664 -1.1511087539 1 0 238.7324039657 0 0 0
60 1 0.2773420597 4.5597681067 -0.2180884987 1 0 238.7324039657 0 0 0
61 1 1.2113139442 4.8654870501 -0.2449034932 1 0 238.7324039657 0 0 0
62 1 1.4885200574 5.896124817 -0.1979381995 1 0 238.7324039657 0 0 0
63 1 1.7951500783 6.6557352591 0.3956539188 1 0 238.7324039657 0 0 0
64 1 1.8942640371 7.4476763234 1.1820978797 1 0 238.7324039657 0 0 0
65 1 1.4702506375 8.3233780165 0.9621583446 1 0 238.7324039657 0 0 0
66 1 1.1951918456 8.9725501418 0.3417408627 1 0 238.7324039657 0 0 0
67 1 0.8705755487 9.1316505726 -0.555893301 1 0 238.7324039657 0 0 0
68 1 0.0678543597 9.5436267204 -0.3861944447 1 0 238.7324039657 0 0 0
69 1 -0.0532805413 9.2287555925 0.5500067853 1 0 238.7324039657 0 0 0
70 1 -0.770326784 9.722506443 0.6198951886 1 0 238.7324039657 0 0 0
71 1 -1.4754591297 10.3422881234 0.6460447537 1 0 238.7324039657 0 0 0
72 1 -2.0485671845 11.1009295034 0.5178941563 1 0 238.7324039657 0 0 0
73 1 -2.602686779 11.2277463116 -0.2400584303 1 0 238.7324039657 0 0 0
74 1 -2.9619633746 10.3868266005 -0.7022303036 1 0 238.7324039657 0 0 0
75 1 -3.7453966385 11.0316601042 -0.7256769184 1 0 238.7324039657 0 0 0
76 1 -3.3369730879 10.8589411106 -1.5878500408 1 0 238.7324039657 0 0 0
77 1 -3.0290878054 11.786993707 -1.3538879008 1 0 238.7324039657 0 0 0
78 1 -3.5244690555 12.5628543252 -1.07085613 1 0 238.7324039657 0 0 0
79 1 -3.6650193767 12.9362001053 -2.0107717955 1 0 238.7324039657 0 0 0
80 1 -2.8838776862 13.4045777482 -2.3246194023 1 0 238.7324039657 0 0 0
81 1 -2.2645951926 13.9706254985 -2.7526279959 1 0 238.7324039657 0 0 0
82 1 -2.2810895722 14.8845959393 -3.128838946 1 0 238.7324039657 0 0 0
83 1 -2.6008228695 15.2130155259 -4.0743682096 1 0 238.7324039657 0 0 0
84 1 -2.0219806959 15.3276765502 -4.9588438029 1 0 238.7324039657 0 0 0
85 1 -1.970926238 14.6317697101 -5.6346600148 1 0 238.7324039657 0 0 0
86 1 -1.9695080588 14.3482657846 -6.6225495182 1 0 238.7324039657 0 0 0
87 1 -2.6593048695 13.979478174 -7.1308501568 1 0 238.7324039657 0 0 0
88 1 -2.2352359332 13.3883066936 -7.895862746 1 0 238.7324039657 0 0 0
89 1 -1.898539113 12.6994716002 -7.1879243064 1 0 238.7324039657 0 0 0
90 1 -2.2743557431 11.7764033812 -7.1746512482 1 0 238.7324039657 0 0 0
91 1 -1.2690769921 11.9365583572 -7.489003253 1 0 238.7324039657 0 0 0
92 1 -0.7453827373 11.6027103427 -8.1276483109 1 0 238.7324039657 0 0 0
93 1 0.1148561339 11.5682386109 -8.5624508255 1 0 238.7324039657 0 0 0
94 1 0.7867912336 12.1805595606 -9.0180293897 1 0 238.7324039657 0 0 0
95 1 1.1420983979 11.2417723183 -8.81342298 1 0 238.7324039657 0 0 0
96 1 1.8142720539 10.635111392 -8.8060802175 1 0 238.7324039657 0 0 0
97 1 1.6858923629 9.6967360134 -8.5752953685 1 0 238.7324039657 0 0 0
98 1 2.4220502637 9.9437655112 -8.0988169089 1 0 238.7324039657 0 0 0
99 1 2.7596449302 10.2988262298 -7.2771175075 1 0 238.7324039657 0 0 0
100 1 3.3145198122 10.689186382 -6.4939004786 1 0 238.7324039657 0 0 0
101 1 3.1010009254 10.2377270169 -5.6670778914 1 0 238.7324039657 0 0 0
102 1 2.9082231113 9.794847493 -4.8295829537 1 0 238.7324039657 0 0 0
103 1 2.0026313657 9.5969560573 -4.7006252124 1 0 238.7324039657 0 0 0
104 1 1.4509716839 9.7699760485 -3.7574896271 1 0 238.7324039657 0 0 0
105 1 1.2084665241 9.4359993779 -2.8016061166 1 0 238.7324039657 0 0 0
106 1 1.6112277506 9.5020446665 -1.8816588957 1 0 238.7324039657 0 0 0
107 1 1.7775897196 9.2296822037 -0.877221423 1 0 238.7324039657 0 0 0
108 1 1.9462805153 8.4098667225 -0.3869853397 1 0 238.7324039657 0 0 0
109 1 1.0587705283 7.9135550312 -0.1271892007 1 0 238.7324039657 0 0 0
110 1 0.3563414915 7.2725257381 0.0207824453 1 0 238.7324039657 0 0 0
111 1 0.4244468836 7.7006316173 0.9841619394 1 0 238.7324039657 0 0 0
112 1 0.1019282547 7.9724429612 1.8404529648 1 0 238.7324039657 0 0 0
113 1 -0.5334969971 7.1094844257 1.6277051173 1 0 238.7324039657 0 0 0
114 1 -0.88596451 7.3105502557 2.4971236156 1 0 238.7324039657 0 0 0
115 1 -1.0401296253 7.9352402193 3.3082387808 1 0 238.7324039657 0 0 0
116 1 -1.6924722292 8.7578463236 3.1451905094 1 0 238.7324039657 0 0 0
117 1 -1.7710096649 9.788082975 2.9669448403 1 0 238.7324039657 0 0 0
118 1 -2.1137439817 10.5719428473 3.3667206453 1 0 238.7324039657 0 0 0
119 1 -2.0353833467 11.1704478021 4.0939317388 1 0 238.7324039657 0 0 0
120 1 -2.7334174791 11.8054605331 4.4344158868 1 0 238.7324039657 0 0 0
121 1 -2.829402904 12.6284472554 4.9666763386 1 0 238.7324039657 0 0 0
122 1 -3.314209118 12.4669264475 5.8365699795 1 0 238.7324039657 0 0 0
123 1 -4.380230249 12.2567275782 6.0106681744 1 0 238.7324039657 0 0 0
124 1 -5.3273138246 12.5225375156 6.3201611616 1 0 238.7324039657 0 0 0
125 1 -6.0307685271 12.1541870059 6.9709645879 1 0 238.7324039657 0 0 0
126 1 -6.994280359 12.1956513252 6.9766807489 1 0 238.7324039657 0 0 0
127 1 -7.7719389043 11.9954263696 6.3964960688 1 0 238.7324039657 0 0 0
128 1 -8.3449013219 12.416756814 5.750932779 1 0 238.7324039657 0 0 0
129 1 -9.0955338799 13.0251461352 5.8303686349 1 0 238.7324039657 0 0 0
130 1 -9.7145115459 13.3256841552 5.1686011283 1 0 238.7324039657 0 0 0
131 1 -9.9442214782 14.0568074754 4.6313007056 1 0 238.7324039657 0 0 0
132 1 -9.2466912593 13.5633457426 4.0823951571 1 0 238.7324039657 0 0 0
133 1 -8.5000854405 14.167974861 3.9231861619 1 0 238.7324039657 0 0 0
134 1 -7.5061017906 14.4968039237 3.7478668515 1 0 238.7324039657 0 0 0
135 1 -6.8902149853 14.5101586559 2.9882383398 1 0 238.7324039657 0 0 0
136 1 -6.5964304072 14.48418981 1.9915706761 1 0 238.7324039657 0 0 0
137 1 -6.2196769428 14.5649157918 1.0015326412 1 0 238.7324039657 0 0 0
138 1 -6.9274169484 13.938946698 0.7948488461 1 0 238.7324039657 0 0 0
139 1 -7.8119842455 13.5933310022 0.4978564891 1 0 238.7324039657 0 0 0
140 1 -8.1975441304 13.1302685216 -0.2171128034 1 0 238.7324039657 0 0 0
141 1 -8.966557864 12.4123912932 -0.4684214499 1 0 238.7324039657 0 0 0
142 1 -8.9877889676 11.5283847321 -0.7515833472 1 0 238.7324039657 0 0 0
143 1 -8.7076065633 10.6691607113 -1.5339867268 1 0 238.7324039657 0 0 0
144 1 -7.7295573089 10.7449211697 -1.267263011 1 0 238.7324039657 0 0 0
145 1 -7.1389685792 11.3758055447 -0.8545877103 1 0 238.7324039657 0 0 0
146 1 -6.5902130445 11.6726787822 -0.1304436957 1 0 238.7324039657 0 0 0
147 1 -6.129511862 11.8024054811 0.6532284014 1 0 238.7324039657 0 0 0
148 1 -6.1849739825 10.7248481043 0.4386236689 1 0 238.7324039657 0 0 0
149 1 -6.2580348477 10.1533525925 -0.2281614322 1 0 238.7324039657 0 0 0
150 1 -6.1573365086 9.1562100641 -0.6971325098 1 0 238.7324039657 0 0 0
151 1 -6.9236190757 8.5137988831 -0.8601751444 1 0 238.7324039657 0 0 0
152 1 -7.2605496664 7.6202758683 -0.8006102489 1 0 238.7324039657 0 0 0
153 1 -7.9847938683 6.9934785195 -0.6111555408 1 0 238.7324039657 0 0 0
154 1 -8.5218096504 6.272325098 -0.4547743179 1 0 238.7324039657 0 0 0
155 1 -9.0752658369 5.6643676122 -0.822038077 1 0 238.7324039657 0 0 0
156 1 -10.0390496145 5.5711916767 -0.713285648 1 0 238.7324039657 0 0 0
157 1 -10.2210783322 4.6357556792 -1.0145273341 1 0 238.7324039657 0 0 0
158 1 -10.5311450181 4.6617991411 0.0041220846 1 0 238.7324039657 0 0 0
159 1 -10.8819309284 5.5402408995 0.2239282459 1 0 238.7324039657 0 0 0
160 1 -11.2147283983 4.7407441375 0.6705029002 1 0 238.7324039657 0 0 0
161 1 -11.4272247583 5.6186719377 1.0544978848 1 0 238.7324039657 0 0 0
162 1 -12.0017829382 6.3207180891 1.6803020504 1 0 238.7324039657 0 0 0
163 1 -11.9119003011 6.3197021724 2.798949628 1 0 238.7324039657 0 0 0
164 1 -12.5423409128 6.7058388829 3.3182304455 1 0 238.7324039657 0 0 0
165 1 -13.1365472559 5.719856218 3.2211344102 1 0 238.7324039657 0 0 0
166 1 -13.7589239904 5.8938296429 2.4280176062 1 0 238.7324039657 0 0 0
167 1 -14.384970556 6.5382068092 2.1859825245 1 0 238.7324039657 0 0 0
168 1 -14.621626127 6.7333220289 1.2133509518 1 0 238.7324039657 0 0 0
169 1 -14.3853665502 7.7175859993 1.1758654334 1 0 238.7324039657 0 0 0
170 1 -14.0891512069 8.4633799286 1.7026472223 1 0 238.7324039657 0 0 0
171 1 -14.6866892079 8.9896026461 2.36341865 1 0 238.7324039657 0 0 0
172 1 -14.7890863267 9.5637077527 3.1701509186 1 0 238.7324039657 0 0 0
173 1 -14.3285064852 10.1355827497 3.9498533052 1 0 238.7324039657 0 0 0
174 1 -15.0036647113 10.724589171 4.2256383493 1 0 238.7324039657 0 0 0
175 1 -15.7819285033 11.1237986437 4.5976237071 1 0 238.7324039657 0 0 0
176 1 -16.1545674398 11.9091865225 4.2023377422 1 0 238.7324039657 0 0 0
177 1 -16.6550268276 12.0054934485 3.4593555468 1 0 238.7324039657 0 0 0
178 1 -17.0856599307 12.1604652402 2.6072804158 1 0 238.7324039657 0 0 0
179 1 -17.5847227068 12.9137959215 2.8474504354 1 0 238.7324039657 0 0 0
180 1 -18.088841057 13.7616385638 2.5415153346 1 0 238.7324039657 0 0 0
181 1 -18.9213532836 13.3007745273 3.0374357955 1 0 238.7324039657 0 0 0
182 1 -19.840386659 13.0303972657 3.6481755679 1 0 238.7324039657 0 0 0
183 1 -20.1429621233 14.0083710431 3.8351137816 1 0 238.7324039657 0 0 0
184 1 -19.7504293647 14.5535950737 4.5761457969 1 0 238.7324039657 0 0 0
185 1 -19.7562982376 14.5485100817 5.632280772 1 0 238.7324039657 0 0 0
186 1 -19.0681521262 14.1029839414 5.1610815607 1 0 238.7324039657 0 0 0
187 1 -18.6734752675 13.6257319982 4.3923900175 1 0 238.7324039657 0 0 0
188 1 -18.1541435788 12.7939077235 4.1351450067 1 0 238.7324039657 0 0 0
189 1 -18.328581749 11.9569073893 4.7308611614 1 0 238.7324039657 0 0 0
190 1 -17.2996366044 11.6453711332 4.655453307 1 0 238.7324039657 0 0 0
191 1 -16.9184772185 11.0812919067 3.9990476081 1 0 238.7324039657 0 0 0
192 1 -16.2763280234 10.8945553363 3.0337552448 1 0 238.7324039657 0 0 0
193 1 -15.7154951517 10.1745213092 2.7199842583 1 0 238.7324039657 0 0 0
194 1 -16.5239696475 9.4897809052 3.0545292813 1 0 238.7324039657 0 0 0
195 1 -16.8162369847 8.718456358 3.4331860706 1 0 238.7324039657 0 0 0
196 1 -16.1220119808 8.3238363067 3.8494045809 1 0 238.7324039657 0 0 0
197 1 -15.3010036831 7.868526822 4.1613056718 1 0 238.7324039657 0 0 0
198 1 -14.4381666393 7.6623956993 3.6771278018 1 0 238.7324039657 0 0 0
199 1 -13.6431283957 7.3007709055 2.9794674846 1 0 238.7324039657 0 0 0
200 1 -13.3774325616 7.1494920186 2.1201353845 1 0 238.7324039657 0 0 0
201 1 -12.5928241927 7.4628228663 1.4135176774 1 0 238.7324039657 0 0 0
202 1 -12.0862929236 7.1536508382 0.6768465349 1 0 238.7324039657 0 0 0
203 1 -12.5954557724 6.672818977 -0.0264721202 1 0 238.7324039657 0 0 0
204 1 -13.0959391981 6.4364398431 0.7660777002 1 0 238.7324039657 0 0 0
205 1 -13.0109176833 5.4861941043 0.0758133901 1 0 238.7324039657 0 0 0
206 1 -13.6025334003 4.8100416928 -0.213348745 1 0 238.7324039657 0 0 0
207 1 -12.9367596919 4.1830732887 -0.3890113295 1 0 238.7324039657 0 0 0
208 1 -13.298391975 3.2822428654 -0.2548674408 1 0 238.7324039657 0 0 0
209 1 -13.8218789971 2.4644965048 -0.2373883076 1 0 238.7324039657 0 0 0
210 1 -13.6351447047 1.8327444965 -0.9631693965 1 0 238.7324039657 0 0 0
211 1 -13.2410185165 1.9847077067 -1.8008675497 1 0 238.7324039657 0 0 0
212 1 -13.0664999585 1.354590194 -2.665574831 1 0 238.7324039657 0 0 0
213 1 -13.2008943244 0.9954975192 -3.5239302959 1 0 238.7324039657 0 0 0
214 1 -13.8398791816 0.3728264973 -3.8864153148 1 0 238.7324039657 0 0 0
215 1 -14.4490861522 0.092044657 -4.5137143015 1 0 238.7324039657 0 0 0
216 1 -15.1543895287 0.4754819197 -4.9650689384 1 0 238.7324039657 0 0 0
217 1 -15.7156716863 1.1278642459 -5.4598624491 1 0 238.7324039657 0 0 0
218 1 -15.9806042986 0.3360865637 -5.961006443 1 0 238.7324039657 0 0 0
219 1 -15.8849978579 0.5696279901 -6.9769088593 1 0 238.7324039657 0 0 0
220 1 -15.6076666639 0.7674418943 -7.955859947 1 0 238.7324039657 0 0 0
221 1 -15.1119235157 0.3555437473 -8.6481852359 1 0 238.7324039657 0 0 0
222 1 -15.5600844051 -0.3775345509 -9.0865522291 1 0 238.7324039657 0 0 0
223 1 -15.9669839795 -0.0526607868 -9.8496896022 1 0 238.7324039657 0 0 0
224 1 -15.3960487259 -0.5663052847 -10.4638796361 1 0 238.7324039657 0 0 0
225 1 -15.1739978141 -1.0554896069 -11.264457485 1 0 238.7324039657 0 0 0
226 1 -15.2977680135 -0.9356750399 -12.1404706026 1 0 238.7324039657 0 0 0
227 1 -15.7240253402 -0.6344429463 -13.0049921762 1 0 238.7324039657 0 0 0
228 1 -16.1829621398 -0.6992613032 -13.7552087628 1 0 238.7324039657 0 0 0
229 1 -16.5458471243 -0.2255230972 -14.5126809859 1 0 238.7324039657 0 0 0
230 1 -16.1867737962 0.3606676885 -15.1175783128 1 0 238.7324039657 0 0 0
231 1 -15.5133492814 0.2728103897 -14.4618452694 1 0 238.7324039657 0 0 0
232 1 -15.6027002886 1.1666957081 -14.9331566251 1 0 238.7324039657 0 0 0
233 1 -15.0104760171 1.8821400429 -15.2185141706 1 0 238.7324039657 0 0 0
234 1 -14.1967393958 2.6946435845 -15.1775279264 1 0 238.7324039657 0 0 0
235 1 -13.7377226052 3.485490293 -15.4519502357 1 0 238.7324039657 0 0 0
236 1 -12.9461935449 3.632204105 -16.1738777048 1 0 238.7324039657 0 0 0
237 1 -12.1683928216 4.2145692116 -16.4406156391 1 0 238.7324039657 0 0 0
238 1 -12.7035204026 4.8402006462 -16.8347299537 1 0 238.7324039657 0 0 0
239 1 -13.197383202 5.3007023356 -17.4952385638 1 0 238.7324039657 0 0 0
240 1 -13.1915167055 6.1592164342 -17.8124309458 1 0 238.7324039657 0 0 0
241 1 -12.7264240527 7.0036822081 -17.4337843912 1 0 238.7324039657 0 0 0
242 1 -12.6539179273 6.5071297751 -16.5894275725 1 0 238.7324039657 0 0 0
243 1 -12.2730973141 7.3283294716 -16.2467305127 1 0 238.7324039657 0 0 0
244 1 -11.6508289895 7.2796960082 -16.9358330184 1 0 238.7324039657 0 0 0
245 1 -10.6669728951 7.4109078834 -17.2034527379 1 0 238.7324039657 0 0 0
246 1 -9.8766029296 7.377773868 -16.6549832501 1 0 238.7324039657 0 0 0
247 1 -9.1763038347 7.8906507008 -16.1342987016 1 0 238.7324039657 0 0 0
248 1 -9.3068858495 8.8173674955 -15.4189429078 1 0 238.7324039657 0 0 0
249 1 -9.8610835489 8.6759078307 -16.2148915261 1 0 238.7324039657 0 0 0
250 1 -10.8707993508 8.5752840605 -16.7461326211 1 0 238.7324039657 0 0 0
251 1 -11.68011985 8.4295114885 -17.1406473737 1 1 238.7324039657 0 0 0
252 1 -11.9807008176 9.2772475136 -16.8843862201 1 1 238.7324039657 0 0 0
253 1 -12.8789399778 9.5614877499 -17.0206399695 1 1 238.7324039657 0 0 0
254 1 -13.8184327126 9.8530088122 -17.1499749428 1 1 238.7324039657 0 0 0
255 1 -14.7569810638 10.3512002459 -17.1191614974 1 1 238.7324039657 0 0 0
256 1 -15.5559656835 10.6307179026 -17.2780771274 1 1 238.7324039657 0 0 0
257 1 -16.4423603209 10.7662629103 -17.7379237729 1 1 238.7324039657 0 0 0
258 1 -17.1906112037 11.1469484358 -17.2819019684 1 1 238.7324039657 0 0 0
259 1 -17.4409519294 10.2575606277 -16.8761467278 1 1 238.7324039657 0 0 0
260 1 -18.1424961509 9.9857908798 -16.3982197326 1 1 238.7324039657 0 0 0
261 1 -18.7063594364 10.3973757521 -15.8030001091 1 1 238.7324039657 0 0 0
262 1 -18.2775117962 10.9541427494 -15.1713528075 1 1 238.7324039657 0 0 0
263 1 -18.4847101818 11.3537240275 -14.3340477549 1 1 238.7324039657 0 0 0
264 1 -18.3405299297 11.6571594953 -13.4555164329 1 1 238.7324039657 0 0 0
265 1 -18.0730004559 11.68056499 -12.6009835088 1 1 238.7324039657 0 0 0
266 1 -17.4338747891 11.9867581103 -11.8918529068 1 1 238.7324039657 0 0 0
267 1 -17.4944420584 12.6289387352 -11.1935764034 1 1 238.7324039657 0 0 0
268 1 -16.735621532 12.5927133478 -10.5941414881 1 1 238.7324039657 0 0 0
269 1 -16.0884433749 13.0607283272 -10.0413895083 1 1 238.7324039657 0 0 0
270 1 -15.7564928277 13.1551220701 -9.1407086227 1 1 238.7324039657 0 0 0
271 1 -15.7400860319 12.410641569 -8.6028615118 1 1 238.7324039657 0 0 0
272 1 -15.5154014129 12.6001205327 -7.6549179887 1 1 238.7324039657 0 0 0
273 1 -15.2926877611 12.5329388429 -6.6886607901 1 1 238.7324039657 0 0 0
274 1 -15.4385228374 12.8033738791 -5.7588021965 1 1 238.7324039657 0 0 0
275 1 -14.6371294812 13.0834789294 -5.1417684076 1 1 238.7324039657 0 0 0
276 1 -14.67854203 12.7687492917 -4.2071327422 1 1 238.7324039657 0 0 0
277 1 -14.3037309735 13.5189486901 -3.7357071944 1 1 238.7324039657 0 0 0
278 1 -13.7596697148 13.9135336944 -4.4996629993 1 1 238.7324039657 0 0 0
279 1 -13.2706139808 14.1797807359 -5.3549208782 1 1 238.7324039657 0 0 0
280 1 -13.8829536154 14.6638708013 -5.8842799938 1 1 238.7324039657 0 0 0
281 1 -14.2836685149 15.0477067853 -6.8167438839 1 1 238.7324039657 0 0 0
282 1 -14.3024572279 15.2854355188 -7.720909686 1 1 238.7324039657 0 0 0
283 1 -15.1539038949 15.5410863453 -7.8880671307 1 1 238.7324039657 0 0 0
284 1 -15.4580480678 16.4433903361 -8.2279240656 1 1 238.7324039657 0 0 0
285 1 -15.3942647075 16.5974021917 -9.1570575185 1 1 238.7324039657 0 0 0
286 1 -14.8095209977 16.7821842812 -9.9211853623 1 1 238.7324039657 0 0 0
287 1 -14.6376536294 17.3382312447 -9.1625462445 1 1 238.7324039657 0 0 0
288 1 -15.2169885562 18.0520675597 -8.7761875105 1 1 238.7324039657 0 0 0
289 1 -14.6150673617 17.8165057686 -7.9063268613 1 1 238.7324039657 0 0 0
290 1 -14.0969498291 17.9469049241 -7.1677456174 1 1 238.7324039657 0 0 0
291 1 -13.4802359452 17.8550809328 -6.3728144803 1 1 238.7324039657 0 0 0
292 1 -12.9531872354 17.4384701005 -7.225936125 1 1 238.7324039657 0 0 0
293 1 -13.3557523831 17.3729768362 -8.1699948766 1 1 238.7324039657 0 0 0
294 1 -12.9340288134 18.1641284907 -7.9053235811 1 1 238.7324039657 0 0 0
295 1 -13.7108203271 18.3756543269 -8.4320669668 1 1 238.7324039657 0 0 0
296 1 -14.4417778918 18.9417198585 -8.5553771473 1 1 238.7324039657 0 0 0
297 1 -15.1470126703 19.3002084636 -9.1902174918 1 1 238.7324039657 0 0 0
298 1 -16.1202197438 19.5932635585 -9.3150141985 1 1 238.7324039657 0 0 0
299 1 -16.6935759904 19.3284823545 -10.0982009264 1 1 238.7324039657 0 0 0
300 1 -17.3397826142 19.2264886515 -10.7855997901 1 1 238.7324039657 0 0 0
301 1 -17.7809137125 19.8383105769 -11.4059432098 1 1 238.7324039657 0 0 0
302 1 -18.2898477492 20.1376799565 -12.0723387177 1 1 238.7324039657 0 0 0
303 1 -18.4170630405 20.6136400381 -12.9382412341 1 1 238.7324039657 0 0 0
304 1 -18.503604572 21.2927310176 -13.6298624123 1 1 238.7324039657 0 0 0
305 1 -17.7125526626 21.299294115 -14.1739796112 1 1 238.7324039657 0 0 0
306 1 -17.3368092425 21.4361679019 -15.038435197 1 1 238.7324039657 0 0 0
307 1 -16.4561998708 21.1956894895 -14.8619275013 1 1 238.7324039657 0 0 0
308 1 -15.691150863 20.943825074 -14.2469453238 1 1 238.7324039657 0 0 0
309 1 -15.8970866687 20.5700190854 -13.3639126601 1 1 238.7324039657 0 0 0
310 1 -15.8912329658 20.8188475357 -12.4215904611 1 1 238.7324039657 0 0 0
311 1 -14.9450681254 21.1424121826 -12.3691095545 1 1 238.7324039657 0 0 0
312 1 -13.9979307574 20.8047875496 -12.3158957863 1 1 238.7324039657 0 0 0
313 1 -13.534347623 20.6001222904 -11.5120366112 1 1 238.7324039657 0 0 0
314 1 -12.7332907451 20.8591649245 -11.9491523921 1 1 238.7324039657 0 0 0
315 1 -11.8614446084 21.3839831237 -11.7118487577 1 1 238.7324039657 0 0 0
316 1 -11.1223681777 21.9905436862 -11.4234961192 1 1 238.7324039657 0 0 0
317 1 -11.4795755034 22.5380460165 -12.1782787387 1 1 238.7324039657 0 0 0
318 1 -11.1052268186 21.6924695737 -12.4542489887 1 1 238.7324039657 0 0 0
319 1 -10.9865064566 20.8104099323 -12.0232112662 1 1 238.7324039657 0 0 0
320 1 -10.6981000305 20.831821168 -12.9513812356 1 1 238.7324039657 0 0 0
321 1 -10.5380110741 20.2495522861 -13.7399361037 1 1 238.7324039657 0 0 0
322 1 -10.4525283683 19.3107083281 -13.7367923324 1 1 238.7324039657 0 0 0
323 1 -9.957018491 18.5667658058 -14.0033885556 1 1 238.7324039657 0 0 0
324 1 -9.955191684 17.601804611 -13.9162547016 1 1 238.7324039657 0 0 0
325 1 -9.8197923735 16.8935322882 -13.2406801861 1 1 238.7324039657 0 0 0
326 1 -10.027652578 16.2778285323 -12.6119982677 1 1 238.7324039657 0 0 0
327 1 -9.4233286644 15.5400509799 -12.803060253 1 1 238.7324039657 0 0 0
328 1 -8.5477540259 15.3578682029 -12.8874388391 1 1 238.7324039657 0 0 0
329 1 -8.2965836545 14.4959795627 -13.244257204 1 1 238.7324039657 0 0 0
330 1 -7.4541348673 14.55210034 -13.738827918 1 1 238.7324039657 0 0 0
331 1 -7.4146480259 13.9029422835 -14.4921425331 1 1 238.7324039657 0 0 0
332 1 -8.2531129731 13.4393806195 -14.4013131197 1 1 238.7324039657 0 0 0
333 1 -9.2335285551 13.3215155152 -14.5211200915 1 1 238.7324039657 0 0 0
334 1 -9.9752240195 12.8728483805 -14.944219512 1 1 238.7324039657 0 0 0
335 1 -10.9052523614 13.2693462557 -14.8332061571 1 1 238.7324039657 0 0 0
336 1 -11.6841303328 13.474775494 -15.3865650202 1 1 238.7324039657 0 0 0
337 1 -12.6006697309 13.4588172881 -15.6380836206 1 1 238.7324039657 0 0 0
338 1 -13.6819687071 13.5121965806 -15.8260090508 1 1 238.7324039657 0 0 0
339 1 -14.4251053966 13.8287895167 -16.330058844 1 1 238.7324039657 0 0 0
340 1 -15.3836464671 13.7830306944 -16.2638054951 1 1 238.7324039657 0 0 0
341 1 -16.1058490588 14.4274775548 -16.1476898511 1 1 238.7324039657 0 0 0
342 1 -17.046029848 14.6708637007 -16.1282711602 1 1 238.7324039657 0 0 0
343 1 -17.5146564444 15.2534247174 -16.697665988 1 1 238.7324039657 0 0 0
344 1 -18.4306488278 15.2853479442 -16.8223548324 1 1 238.7324039657 0 0 0
345 1 -19.2879917056 15.7138564959 -17.0723673054 1 1 238.7324039657 0 0 0
346 1 -20.1455660284 15.3857291688 -16.6473501799 1 1 238.7324039657 0 0 0
347 1 -20.8083809839 14.9815075191 -17.3169365616 1 1 238.7324039657 0 0 0
348 1 -21.6802065882 15.0406323791 -17.7094925405 1 1 238.7324039657 0 0 0
349 1 -21.5117910946 14.3644813963 -18.3980960316 1 1 238.7324039657 0 0 0
350 1 -20.9571029515 13.7445804841 -18.9460340463 1 1 238.7324039657 0 0 0
351 1 -21.7307770108 13.3323765098 -19.4708187726 1 1 238.7324039657 0 0 0
352 1 -22.4330796126 13.4579268485 -20.09264671 1 1 238.7324039657 0 0 0
353 1 -22.6479228649 14.1594242613 -19.4894308433 1 1 238.7324039657 0 0 0
354 1 -23.2025989458 14.5065446566 -18.7488238186 1 1 238.7324039657 0 0 0
355 1 -23.9741872139 14.2610613459 -18.1488496904 1 1 238.7324039657 0 0 0
356 1 -24.1376573968 13.3435162586 -17.802372093 1 1 238.7324039657 0 0 0
357 1 -24.1992799473 12.781366323 -17.0067340133 1 1 238.7324039657 0 0 0
358 1 -24.5090814816 12.1301132574 -16.3596634183 1 1 238.7324039657 0 0 0
359 1 -24.5193320359 11.7167549812 -15.4328844801 1 1 238.7324039657 0 0 0
360 1 -25.3340200017 11.5023201174 -15.0188148858 1 1 238.7324039657 0 0 0
361 1 -25.7580376203 11.3462709838 -14.1944557924 1 1 238.7324039657 0 0 0
362 1 -25.7679794098 10.802916935 -13.4075692919 1 1 238.7324039657 0 0 0
363 1 -26.2247122551 10.1075578439 -12.8339672275 1 1 238.7324039657 0 0 0
364 1 -26.0838499869 9.7004347387 -11.9980335108 1 1 238.7324039657 0 0 0
365 1 -25.1264772539 9.9428024919 -11.8725200183 1 1 238.7324039657 0 0 0
366 1 -25.4219440661 9.388170823 -11.0811063627 1 1 238.7324039657 0 0 0
367 1 -26.2382357392 9.0825641382 -10.5375165252 1 1 238.7324039657 0 0 0
368 1 -26.0314202711 8.6965420086 -9.622233491 1 1 238.7324039657 0 0 0
369 1 -25.5710441497 8.0733074976 -9.0456953742 1 1 238.7324039657 0 0 0
370 1 -26.2097489212 8.367201513 -8.3338404429 1 1 238.7324039657 0 0 0
371 1 -26.0825403392 9.3041450352 -8.6862542359 1 1 238.7324039657 0 0 0
372 1 -25.2167300899 9.651922609 -8.5040746526 1 1 238.7324039657 0 0 0
373 1 -24.3391359779 9.8511342512 -8.9824060095 1 1 238.7324039657 0 0 0
374 1 -23.6601646071 9.6577840146 -9.6805176164 1 1 238.7324039657 0 0 0
375 1 -22.8820741378 9.0980047046 -9.7686901182 1 1 238.7324039657 0 0 0
376 1 -22.0152651641 9.1656705337 -10.240413455 1 1 238.7324039657 0 0 0
377 1 -21.5738550022 9.9703286337 -10.0235831137 1 1 238.7324039657 0 0 0
378 1 -21.1732932516 9.137220128 -9.8406214805 1 1 238.7324039657 0 0 0
379 1 -21.0706245061 8.3353459425 -10.5559698008 1 1 238.7324039657 0 0 0
380 1 -21.236812401 7.7392960238 -11.2786330882 1 1 238.7324039657 0 0 0
381 1 -22.0050663741 7.0583402084 -11.1962995892 1 1 238.7324039657 0 0 0
382 1 -22.7935041572 6.6594674841 -10.8941789328 1 1 238.7324039657 0 0 0
383 1 -23.3274929052 6.8649066562 -10.1088483407 1 1 238.7324039657 0 0 0
384 1 -23.7700181078 7.7303834379 -9.5729660523 1 1 238.7324039657 0 0 0
385 1 -23.8661837333 8.4293773426 -8.918609344 1 1 238.7324039657 0 0 0
386 1 -24.5643729054 8.7735984341 -8.2114601673 1 1 238.7324039657 0 0 0
387 1 -25.2878874786 9.0365171649 -7.6217098092 1 1 238.7324039657 0 0 0
388 1 -25.5903743141 9.9361562223 -7.554158309 1 1 238.7324039657 0 0 0
389 1 -25.8852066907 10.6882121431 -6.981290134 1 1 238.7324039657 0 0 0
390 1 -26.0741554946 11.5525555562 -6.7138450184 1 1 238.7324039657 0 0 0
391 1 -26.3454665216 12.4826572467 -6.6025778032 1 1 238.7324039657 0 0 0
392 1 -26.631085109 13.3768727049 -6.3880019653 1 1 238.7324039657 0 0 0
393 1 -26.8316917284 14.2383593157 -5.9522262249 1 1 238.7324039657 0 0 0
394 1 -27.0039040368 15.2118241952 -5.9832212011 1 1 238.7324039657 0 0 0
395 1 -26.7778358218 16.0005513073 -5.5791511307 1 1 238.7324039657 0 0 0
396 1 -26.9644920106 16.9284559133 -5.3514041408 1 1 238.7324039657 0 0 0
397 1 -26.0253230518 16.9000599916 -5.0805622292 1 1 238.7324039657 0 0 0
398 1 -25.7058592958 17.036717545 -4.134059978 1 1 238.7324039657 0 0 0
399 1 -25.3331152508 17.4084158769 -3.3172631183 1 1 238.7324039657 0 0 0
400 1 -24.6958791975 17.5856750084 -2.6886954852 1 1 238.7324039657 0 0 0
401 1 -24.132405466 18.1445048637 -2.108288558 1 1 238.7324039657 0 0 0
402 1 -23.2114803746 17.9990108806 -1.7591762397 1 1 238.7324039657 0 0 0
403 1 -22.996828989 17.1261826891 -2.0807534826 1 1 238.7324039657 0 0 0
404 1 -22.0056856962 16.9306657453 -2.2460778171 1 1 238.7324039657 0 0 0
405 1 -21.3018918095 16.0083271237 -2.3334303289 1 1 238.7324039657 0 0 0
406 1 -20.7958207931 14.9500848481 -2.346352791 1 1 238.7324039657 0 0 0
407 1 -19.7729715598 14.3182672824 -2.2615462056 1 1 238.7324039657 0 0 0
408 1 -18.9218682253 13.7482443842 -1.9790657931 1 1 238.7324039657 0 0 0
409 1 -18.1093344965 13.1856449411 -1.9920888129 1 1 238.7324039657 0 0 0
410 1 -17.7304802639 12.3910962372 -1.4879921744 1 1 238.7324039657 0 0 0
411 1 -16.9149578929 12.7257551156 -0.972916318 1 1 238.7324039657 0 0 0