ITEM: TIMESTEP
0
ITEM: NUMBER OF ATOMS
16
ITEM: BOX BOUNDS pp pp pp
-2.0000000000000000e+01 2.0000000000000000e+01
-2.0000000000000000e+01 2.0000000000000000e+01
-2.0000000000000000e+01 2.0000000000000000e+01
ITEM: ATOMS id mol type x y z ix iy iz vx vy vz c_quat[1] c_quat[2] c_quat[3] c_quat[4] angmomx angmomy angmomz
1 1 1 -6.133472972454683e-01 -6.574781716697657e-01  3.606522635120193e-01 0 0 0  5.386890022865587e-02  2.262922525602673e-02  2.488229114473675e-01  9.964752158482045e-01 -5.325355573323980e-02  1.139116380710251e-02 -6.380787090289707e-02  1.772010258006941e-01 -2.958853170000101e-01 -2.624137503614725e-01
2 1 2 -4.526276424735620e-01 -1.003065053434590e+00  7.258693379233350e-01 0 0 0 -3.995003075629463e-02  2.696951106370198e-01 -1.898645454819566e-01  9.369923833143513e-01  1.122071604464856e-01  6.732538499716349e-02  3.239168400846305e-01 -3.061453937596818e-02 -1.176951893148060e-01  4.007470242647321e-02
3 1 3 -9.883421085226374e-02 -1.239775807128058e+00  1.069462285786361e+00 0 0 0 -2.078453529520138e-01 -1.362872235767304e-01 -6.062477950201746e-02  7.979649320918270e-01  1.447309635452787e-01  1.837414269936639e-01  5.554673737937029e-01 -3.676034584820381e-02 -6.308707793373186e-02 -1.479860157608762e-01
4 1 4  2.937771854299740e-01 -1.257975092489986e+00  1.425891608660695e+00 0 0 0 -2.396982418131700e-01 -5.624721730878831e-01  3.247442290503672e-02  5.660864821344559e-01  1.468827549948105e-01  9.873742533340191e-02  8.051226439917721e-01 -1.652364596501651e-01  2.860623077030974e-01  3.354351975310588e-01
5 1 1  6.286896795685166e-01 -1.018334339511973e+00  1.768934633967284e+00 0 0 0 -1.611489735682835e-01 -2.288969747076015e-01 -1.355332496264956e-01  2.533023785125306e-01  1.206231316167983e-01  8.583012223905846e-02  9.559922359911086e-01  7.151030852881342e-02 -9.415592891043179e-02  1.342288153931229e-01
6 1 2  7.901522619067975e-01 -6.766341805565261e-01  2.154016070549574e+00 0 0 0 -4.701706588477693e-02  1.921671558511004e-01  1.458824279129722e-01 -3.855807343534716e-02  8.405913137017908e-02  2.236505169306371e-02  9.954632800204194e-01  9.218622989776322e-02 -5.640128930702024e-01  9.287105657777776e-02
7 1 3  7.115777184886873e-01 -4.019557932514353e-01  2.569568683291529e+00 0 0 0  5.098438305112513e-02 -3.845955552200959e-02 -1.424419628574967e-01 -4.559284433024802e-01  1.004550065061007e-01 -5.252474529475878e-02  8.827679181910482e-01  3.479046835475834e-01  4.244922695910593e-01 -1.358288260435836e-01
8 1 4  4.697331037700536e-01 -3.025169796710685e-01  3.066800711751920e+00 0 0 0  3.782797134841193e-01 -4.953992506010833e-02  1.626392045834847e-01  7.680212215404908e-01 -9.582139884533597e-03  3.658677589040892e-02 -6.393066507464399e-01  4.428876596361290e-02  7.868414126013584e-02 -1.271360044432503e-01
9 2 1  4.056113349449895e-01 -1.443775499211899e+00  3.059072650334112e+00 0 0 0  4.912038408665491e-02  4.126064731871670e-02  1.222385633449523e-02 -2.329997575451234e-01  6.886863952313410e-01  6.747873944883376e-01 -1.268232401684158e-01  3.282916621721876e-02 -1.267054709525600e-04  1.559787854176960e-01
10 2 2 -3.202842905928804e-02 -1.294752097116472e+00  2.720107115139218e+00 0 0 0  1.939216183073483e-01  1.107523548538194e-01 -4.050505160199710e-02 -2.466206187190723e-01  8.744456399178389e-01  3.937083608782400e-01 -1.397026120939516e-01 -1.700813500181381e-01 -4.563093565840761e-01 -3.031851362703951e-01
11 2 3 -3.161385511231423e-01 -9.084141759061595e-01  2.412520787178206e+00 0 0 0 -3.513607339206460e-01 -1.882241906753569e-01  3.614793819905130e-01 -8.747590085090901e-02  9.773676023882290e-01  1.449354911309558e-01 -1.268630757266878e-01 -3.708221604627426e-01 -4.910838182594122e-01  9.435948331955418e-02
12 2 4 -3.893939125182087e-01 -4.866605488242826e-01  2.006177777000424e+00 0 0 0 -1.188642917357977e-01  2.235528245655188e-01  9.265586122144348e-03 -3.181169300779214e-02  9.634374984140114e-01 -2.442360692534372e-01 -1.054748563087919e-01 -2.823010018885836e-01  1.027648566082889e-01  1.017523347678070e-01
13 3 1 -6.232643040853247e-02 -7.155965522127516e-02  1.559320605273072e+00 0 0 0 -1.446616296238799e-01 -1.155205990978724e-01  1.331477187595642e-01 -3.278607069657226e-02  7.922941528811774e-01 -6.084214170523914e-01 -3.191282109962716e-02 -2.549872189037434e-01  2.754663721641154e-01  5.806416868630132e-02
14 3 2  1.788409039091334e-01 -5.516721349427200e-02  1.021273149730916e+00 0 0 0  5.154712003586254e-02 -3.661102651077563e-01 -6.630782880801242e-02  4.718868628834144e-02  6.316396208287697e-01 -7.737349519945346e-01  1.178309584462780e-02 -1.199984717331652e-01  6.844768922886051e-02  2.161595932308759e-01
15 3 3  4.513439961906016e-01 -2.379560738327449e-01  5.957328539616000e-01 0 0 0 -2.021424496209139e-01  2.334122693355961e-01  8.133374252278069e-03 -5.869980642620334e-02 -3.422935820341442e-01  9.376740835056506e-01  1.251996587850869e-02 -1.701391112413525e-01  1.870292260510287e-02 -2.682954134361106e-01
16 3 4  5.077649359807950e-01 -5.565625134533541e-01  1.655875784458836e-01 0 0 0 -1.920213116286801e-01 -8.105295741355378e-02 -4.693508108850740e-02 -8.582818143150042e-02  8.707732197394232e-04  9.939540921464659e-01 -6.846917358531610e-02  1.733210765264759e-02 -3.287658886280769e-01  1.085334141225924e-01
ITEM: TIMESTEP
1000
ITEM: NUMBER OF ATOMS
16
ITEM: BOX BOUNDS pp pp pp
-2.0000000000000000e+01 2.0000000000000000e+01
-2.0000000000000000e+01 2.0000000000000000e+01
-2.0000000000000000e+01 2.0000000000000000e+01
ITEM: ATOMS id mol type x y z ix iy iz vx vy vz c_quat[1] c_quat[2] c_quat[3] c_quat[4] angmomx angmomy angmomz
1 1 1 -6.128204815924635e-01 -6.573062944832441e-01  3.630620804789024e-01 0 0 0  5.138488800042378e-02  1.189742157206953e-02  2.326469548975350e-01  9.964183651957705e-01 -5.087711567601789e-02  8.487877752447951e-03 -6.700683944446736e-02  1.959080840685735e-01 -2.631623837663650e-01 -2.707449727325749e-01
2 1 2 -4.530387661728925e-01 -1.000379321692792e+00  7.239656771060650e-01 0 0 0 -4.219370769246412e-02  2.671703009306319e-01 -1.903245508466808e-01  9.369825055291177e-01  1.113764065557704e-01  6.628560041580621e-02  3.244461427920152e-01 -3.945430029175302e-02 -1.093887893896224e-01  3.599462734334038e-02
3 1 3 -1.009395833051051e-01 -1.241094920555227e+00  1.068987090154175e+00 0 0 0 -2.132313574830019e-01 -1.274820845988263e-01 -3.440842881932778e-02  7.991204264706039e-01  1.444310844160903e-01  1.828766674455046e-01  5.541681426749998e-01  7.998458798094408e-03 -9.021426271251072e-02 -1.561908309540329e-01
4 1 4  2.914124125888982e-01 -1.263552691667166e+00  1.426125495406467e+00 0 0 0 -2.332632112807816e-01 -5.529134930491534e-01  1.432323853222893e-02  5.629298638610944e-01  1.479177643841462e-01  1.028213837221418e-01  8.066337870448955e-01 -1.982115356780637e-01  2.768760239450283e-01  3.422653788917592e-01
5 1 1  6.270943046238655e-01 -1.020625488965752e+00  1.767576514315365e+00 0 0 0 -1.579020589996909e-01 -2.292240982596595e-01 -1.358642647932888e-01  2.518489998422658e-01  1.196957088194476e-01  8.496065009654764e-02  9.565702830967689e-01  7.142118946458333e-02 -8.875259705049779e-02  1.288739964460141e-01
6 1 2  7.896841886855235e-01 -6.747532838410921e-01  2.155510041768803e+00 0 0 0 -4.657610757182319e-02  1.837677923055895e-01  1.529623918101288e-01 -3.965362204343041e-02  7.764065455106973e-02  2.166589515305458e-02  9.959568805962110e-01  8.983140940128939e-02 -5.457217405708051e-01  1.081975053985550e-01
7 1 3  7.120857568126937e-01 -4.023145626503039e-01  2.568217326390135e+00 0 0 0  5.061331053476075e-02 -3.322713556189763e-02 -1.276821729390865e-01 -4.547076292146720e-01  1.028509587335429e-01 -5.835081752443851e-02  8.827558180583083e-01  3.358244405757445e-01  4.172463035562560e-01 -1.305982980961148e-01
8 1 4  4.735533541113848e-01 -3.030373286302634e-01  3.068372719985644e+00 0 0 0  3.857470513871432e-01 -5.452946682513962e-02  1.517195579426255e-01  7.670562575864180e-01 -9.734980460208134e-03  3.765972986644820e-02 -6.403996194559649e-01  4.620673049177163e-02  8.613281432895738e-02 -1.271917719446825e-01
9 2 1  4.060601695354948e-01 -1.443364401353239e+00  3.059128563506524e+00 0 0 0  4.063316871922310e-02  4.097454365172486e-02 -1.067666047970220e-03 -2.329769267181638e-01  6.873802103833909e-01  6.760882194900737e-01 -1.270232949383168e-01  2.265463621911255e-02 -2.586918223723528e-03  1.618789774621861e-01
10 2 2 -3.007223849598359e-02 -1.293599466901578e+00  2.719733416777244e+00 0 0 0  1.972281031387305e-01  1.197252391513235e-01 -3.416024260512125e-02 -2.432363163190466e-01  8.769969030075480e-01  3.917620900066052e-01 -1.350370000124671e-01 -1.822570155972697e-01 -4.640257351614840e-01 -2.855942147819788e-01
11 2 3 -3.196821225724117e-01 -9.102481423444481e-01  2.416098204603324e+00 0 0 0 -3.572541053348141e-01 -1.783848813299660e-01  3.535222653953516e-01 -8.244392513560282e-02  9.782800742851019e-01  1.458609686323047e-01 -1.220478319947400e-01 -3.572407697671436e-01 -4.887169645346635e-01  7.783294744956451e-02
12 2 4 -3.905964338199475e-01 -4.845111845306708e-01  2.006334204329031e+00 0 0 0 -1.216338303878955e-01  2.061716658764018e-01  2.205958509246837e-02 -2.829376750848589e-02  9.636887876472202e-01 -2.435055703769130e-01 -1.058698279899473e-01 -2.788150684689323e-01  1.043157196314405e-01  9.822988327341382e-02
13 3 1 -6.374665754124600e-02 -7.272320389414894e-02  1.560558564255564e+00 0 0 0 -1.393478024246507e-01 -1.172261321445383e-01  1.143502003072839e-01 -2.857296520530722e-02  7.927055754899011e-01 -6.080534636253225e-01 -3.274815444952258e-02 -2.377655431846555e-01  2.815067640769424e-01  6.438556444618337e-02
14 3 2  1.793778729192540e-01 -5.884706291182995e-02  1.020673922619742e+00 0 0 0  5.574630985141359e-02 -3.696985451787275e-01 -5.352589885376682e-02  4.862940336625209e-02  6.335357403484444e-01 -7.720824274088786e-01  1.250488367817218e-02 -1.233087807167227e-01  6.370503106701858e-02  2.238131527385636e-01
15 3 3  4.493216806857320e-01 -2.356181991116426e-01  5.958244563341020e-01 0 0 0 -2.022883331543478e-01  2.339752835396070e-01  1.006349098824397e-02 -5.955192475860627e-02 -3.392501484233063e-01  9.387468101638420e-01  1.083196471199672e-02 -1.893816198167367e-01  1.534011940712041e-02 -2.730802981784812e-01
16 3 4  5.058313104231794e-01 -5.573385840047761e-01  1.651383983284966e-01 0 0 0 -1.946502796129189e-01 -7.409068651050793e-02 -4.275807471925475e-02 -8.199092894166342e-02 -7.805049801573327e-05  9.942859972363171e-01 -6.835815371399187e-02  1.934418806063854e-02 -3.285019676029646e-01  9.961714872945987e-02
ITEM: TIMESTEP
2000
ITEM: NUMBER OF ATOMS
16
ITEM: BOX BOUNDS pp pp pp
-2.0000000000000000e+01 2.0000000000000000e+01
-2.0000000000000000e+01 2.0000000000000000e+01
-2.0000000000000000e+01 2.0000000000000000e+01
ITEM: ATOMS id mol type x y z ix iy iz vx vy vz c_quat[1] c_quat[2] c_quat[3] c_quat[4] angmomx angmomy angmomz
1 1 1 -6.123218805823486e-01 -6.572370475192598e-01  3.652950423182759e-01 0 0 0  4.821698756053745e-02  2.117156067231611e-03  2.134249578476611e-01  9.963391121904711e-01 -4.831200966266799e-02  5.995423798225862e-03 -7.027359486562380e-02  2.144144915671386e-01 -2.273842862508288e-01 -2.783367593993409e-01
2 1 2 -4.534696098398452e-01 -9.977273151548183e-01  7.220742976943383e-01 0 0 0 -4.386634033443308e-02  2.629468411391577e-01 -1.873527729524269e-01  9.369931748391420e-01  1.104936159529137e-01  6.534286356565303e-02  3.249080813392545e-01 -4.570897152987623e-02 -1.037858923934591e-01  3.038289778583439e-02
3 1 3 -1.030988941903230e-01 -1.242324437564242e+00  1.068773779108991e+00 0 0 0 -2.186339670476243e-01 -1.183743095800064e-01 -8.293022138303059e-03  8.003033428371270e-01  1.443841792532786e-01  1.814677506307790e-01  5.529350989999484e-01  5.225948938938126e-02 -1.168945195585318e-01 -1.631318619994661e-01
4 1 4  2.891117593004327e-01 -1.269030674574914e+00  1.426178987824429e+00 0 0 0 -2.268763682116106e-01 -5.425483194729257e-01 -3.553687572840086e-03  5.597666473361067e-01  1.486443768477467e-01  1.071490279297996e-01  8.081368916064524e-01 -2.295587532522170e-01  2.669935550113167e-01  3.473411329382809e-01
5 1 1  6.255320326141706e-01 -1.022916662609010e+00  1.766221705255726e+00 0 0 0 -1.545369929962573e-01 -2.289035777602841e-01 -1.348888118939086e-01  2.504427271168410e-01  1.188372718807852e-01  8.410303099284032e-02  9.571221570019312e-01  7.117545511186707e-02 -8.232965777948101e-02  1.244716131709502e-01
6 1 2  7.892211294554109e-01 -6.729635794942015e-01  2.157076137759636e+00 0 0 0 -4.601838750335106e-02  1.739420742984682e-01  1.602876209106261e-01 -4.091798128585124e-02  7.145100995963050e-02  2.100084198513476e-02  9.963831776074681e-01  8.672791526760389e-02 -5.230809918183620e-01  1.221912028083431e-01
7 1 3  7.125897269852312e-01 -4.026190387118028e-01  2.567017715439268e+00 0 0 0  5.016471457069482e-02 -2.760550879803915e-02 -1.121193833751087e-01 -4.535171674545210e-01  1.052325443942558e-01 -6.399990848359881e-02  8.826960417598065e-01  3.228990299127320e-01  4.088171295960276e-01 -1.243827319685928e-01
8 1 4  4.774475717995502e-01 -3.036075140686873e-01  3.069834408302118e+00 0 0 0  3.930725433892062e-01 -5.950258363982786e-02  1.405912683789567e-01  7.660851515705478e-01 -9.924261786576209e-03  3.881530557276190e-02 -6.414892217523344e-01  4.863062520363984e-02  9.381830262082411e-02 -1.272665470577544e-01
9 2 1  4.064237864727644e-01 -1.442955684149093e+00  3.059050889784245e+00 0 0 0  3.208247709857464e-02  4.078569204902381e-02 -1.448117170578986e-02 -2.328444388337458e-01  6.860597712850014e-01  6.774227202657437e-01 -1.272946015993196e-01  1.265849822643771e-02 -5.560094021302681e-03  1.670012886438573e-01
10 2 2 -2.808566792595528e-02 -1.292358644861688e+00  2.719425352474947e+00 0 0 0  1.999943234140293e-01  1.283824618402430e-01 -2.738324602047422e-02 -2.396574224501857e-01  8.794715851312392e-01  3.899861402982636e-01 -1.304026885709859e-01 -1.946624012790716e-01 -4.702114692961314e-01 -2.660983521634103e-01
11 2 3 -3.232815415949390e-01 -9.119784055452376e-01  2.419581930888535e+00 0 0 0 -3.625198579484360e-01 -1.675050722154458e-01  3.427757100400896e-01 -7.759056534381754e-02  9.791536766998199e-01  1.466063989621309e-01 -1.172362800425188e-01 -3.437752382238456e-01 -4.825374137818957e-01  6.094724326129438e-02
12 2 4 -3.918264468582661e-01 -4.825399115293287e-01  2.006619478579830e+00 0 0 0 -1.243606477576540e-01  1.879515075165715e-01  3.500708973181331e-02 -2.481633576060082e-02  9.639149870768644e-01 -2.428063390548646e-01 -1.062879526700921e-01 -2.749722188952606e-01  1.055734088963339e-01  9.481924219785923e-02
13 3 1 -6.511265122393860e-02 -7.390489817584091e-02  1.561605952183229e+00 0 0 0 -1.338133701978096e-01 -1.191475829167848e-01  9.505552144321490e-02 -2.447632397285569e-02  7.931382282576427e-01 -6.076124184830113e-01 -3.376106257701955e-02 -2.198409410180998e-01  2.871566596903047e-01  7.062521448412115e-02
14 3 2  1.799537214214937e-01 -6.255787329647142e-02  1.020202688233750e+00 0 0 0  5.931298935242896e-02 -3.722936952865721e-01 -4.072686214024453e-02  5.004795675017549e-02  6.354893307251837e-01 -7.703712497433859e-01  1.329097921166163e-02 -1.258188647524535e-01  5.899957463861212e-02  2.309241887003530e-01
15 3 3  4.472988666692064e-01 -2.332803713387623e-01  5.959317875638604e-01 0 0 0 -2.022430436504995e-01  2.333975771990789e-01  1.129319823904647e-02 -6.043407454246957e-02 -3.361441848346173e-01  9.398271339445673e-01  8.931289806427486e-03 -2.073165936975760e-01  1.110581233005069e-02 -2.766900627509915e-01
16 3 4  5.038729847602268e-01 -5.580430217091251e-01  1.647350868018315e-01 0 0 0 -1.969630220484892e-01 -6.673693687095954e-02 -3.778002345094063e-02 -7.817341476473896e-02 -9.227540671517450e-04  9.946026556084497e-01 -6.821746994407828e-02  2.080048118466377e-02 -3.263910044023614e-01  8.986094253602359e-02
ITEM: TIMESTEP
3000
ITEM: NUMBER OF ATOMS
16
ITEM: BOX BOUNDS pp pp pp
-2.0000000000000000e+01 2.0000000000000000e+01
-2.0000000000000000e+01 2.0000000000000000e+01
-2.0000000000000000e+01 2.0000000000000000e+01
ITEM: ATOMS id mol type x y z ix iy iz vx vy vz c_quat[1] c_quat[2] c_quat[3] c_quat[4] angmomx angmomy angmomz
1 1 1 -6.118585732007595e-01 -6.572605611417011e-01  3.673200020775147e-01 0 0 0  4.432063080496147e-02 -6.647605887251123e-03  1.910330254939980e-01  9.962386293389990e-01 -4.556487835549228e-02  3.948913662396802e-03 -7.359919397716891e-02  2.326922971219096e-01 -1.885214443788614e-01 -2.851442120975854e-01
2 1 2 -4.539136896503901e-01 -9.951260274442197e-01  7.202309911045593e-01 0 0 0 -4.481948121401043e-02  2.570326541304467e-01 -1.806748614245555e-01  9.370292103460450e-01  1.095786395979000e-01  6.445458113750066e-02  3.252912351609407e-01 -4.913447347173538e-02 -1.011322303313911e-01  2.310972799397247e-02
3 1 3 -1.053123361045344e-01 -1.243461897514803e+00  1.068819584579386e+00 0 0 0 -2.240581796802823e-01 -1.091066582960051e-01  1.733880295750276e-02  8.015038550546157e-01  1.445842279038206e-01  1.795267578044529e-01  5.517763266091317e-01  9.539723198919985e-02 -1.429569577885146e-01 -1.687002264195555e-01
4 1 4  2.868747007109385e-01 -1.274400951640088e+00  1.426056347665103e+00 0 0 0 -2.205445684848595e-01 -5.313711539261172e-01 -2.085290592853092e-02  5.566112494627642e-01  1.490718416924058e-01  1.116963839592536e-01  8.096205412391426e-01 -2.587474120125431e-01  2.565905824088934e-01  3.505074404290300e-01
5 1 1  6.240037826697652e-01 -1.025201437237006e+00  1.764882719408591e+00 0 0 0 -1.511065609395066e-01 -2.279460529427285e-01 -1.327192142650178e-01  2.490724138608956e-01  1.180565610147425e-01  8.326350398409890e-02  9.576496070897587e-01  7.067761316898923e-02 -7.506663391186365e-02  1.210604794719710e-01
6 1 2  7.887641216790162e-01 -6.712789256081755e-01  2.158716194170805e+00 0 0 0 -4.537053489629012e-02  1.627714364539970e-01  1.677325115022413e-01 -4.233619065909831e-02  6.553952722026091e-02  2.037394808968472e-02  9.967432565969334e-01  8.291031818423072e-02 -4.964185740023053e-01  1.348034137532740e-01
7 1 3  7.130886637670460e-01 -4.028654668357907e-01  2.565977099179547e+00 0 0 0  4.959982007569657e-02 -2.162207975730601e-02 -9.590806237699551e-02 -4.523677663339113e-01  1.075927515223871e-01 -6.945670947561738e-02  8.825887883441129e-01  3.092707735374767e-01  3.991908358028833e-01 -1.172732129439329e-01
8 1 4  4.814143216889049e-01 -3.042272354327225e-01  3.071184158859208e+00 0 0 0  4.002530895151123e-01 -6.443229451983955e-02  1.293467832040923e-01  7.651075939994398e-01 -1.014763984189332e-02  4.005879057838494e-02 -6.425750448838056e-01  5.147764287227428e-02  1.017080373111549e-01 -1.273234666417055e-01
9 2 1  4.067017235706596e-01 -1.442548340102396e+00  3.058838789122613e+00 0 0 0  2.350320953587942e-02  4.070105543483678e-02 -2.793977779919246e-02 -2.326011209890040e-01  6.847310713060993e-01  6.787862712686270e-01 -1.276294497359214e-01  2.918134869721110e-03 -9.064751672332070e-03  1.713555993849847e-01
10 2 2 -2.607421900602383e-02 -1.291033029699540e+00  2.719187069664390e+00 0 0 0  2.022004067456325e-01  1.366762215895432e-01 -2.021142246729578e-02 -2.358871800040589e-01  8.818592755494862e-01  3.883951750131532e-01 -1.258198889825068e-01 -2.072067510917617e-01 -4.748718714040595e-01 -2.449152820148252e-01
11 2 3 -3.269302148089287e-01 -9.135952010658905e-01  2.422945156052870e+00 0 0 0 -3.670940744451617e-01 -1.557123348243980e-01  3.294610709594223e-01 -7.292062609343003e-02  9.799874594816099e-01  1.471641890297515e-01 -1.124716098228245e-01 -3.304727660490786e-01 -4.727340113415813e-01  4.376348808929220e-02
12 2 4 -3.930834632703417e-01 -4.807546211946184e-01  2.007034325146900e+00 0 0 0 -1.270324144678379e-01  1.689911144071052e-01  4.794881579263741e-02 -2.138410994450429e-02  9.641171118716347e-01 -2.421364298031880e-01 -1.067279897699996e-01 -2.707374351198397e-01  1.066755782030760e-01  9.155426527997051e-02
13 3 1 -6.642214656246706e-02 -7.510648598658781e-02  1.562458880526173e+00 0 0 0 -1.280456624840821e-01 -1.211757678071495e-01  7.551283600075188e-02 -2.050427223474681e-02  7.935929760477973e-01 -6.070981495363332e-01 -3.495139506920445e-02 -2.015289518631188e-01  2.923716392450951e-01  7.687524987611946e-02
14 3 2  1.805618297273811e-01 -6.628946101436425e-02  1.019859098685331e+00 0 0 0  6.218897095845848e-02 -3.738463360464119e-01 -2.801364505753805e-02  5.143858490942693e-02  6.374950377252731e-01 -7.686054890438623e-01  1.413333187233718e-02 -1.274193811679536e-01  5.433405333635871e-02  2.373757516287392e-01
15 3 3  4.452774400818973e-01 -2.309541459295262e-01  5.960482862027604e-01 0 0 0 -2.020116788251800e-01  2.316505391995135e-01  1.191301511850812e-02 -6.133163819796247e-02 -3.329890465555703e-01  9.409091869624925e-01  6.828390699738888e-03 -2.238781834297018e-01  6.105902830411701e-03 -2.790648902091268e-01
16 3 4  5.018930663475986e-01 -5.586722352193629e-01  1.643851016206873e-01 0 0 0 -1.989709345092212e-01 -5.905701363930566e-02 -3.211058636865501e-02 -7.439675295741437e-02 -1.654772998194654e-03  9.949025901639176e-01 -6.805307458774978e-02  2.171399435013662e-02 -3.225566294181820e-01  7.931022489330161e-02
ITEM: TIMESTEP
4000
ITEM: NUMBER OF ATOMS
16
ITEM: BOX BOUNDS pp pp pp
-2.0000000000000000e+01 2.0000000000000000e+01
-2.0000000000000000e+01 2.0000000000000000e+01
-2.0000000000000000e+01 2.0000000000000000e+01
ITEM: ATOMS id mol type x y z ix iy iz vx vy vz c_quat[1] c_quat[2] c_quat[3] c_quat[4] angmomx angmomy angmomz
1 1 1 -6.114379538019022e-01 -6.573665499602148e-01  3.691050421860780e-01 0 0 0  3.968004851825461e-02 -1.437925933849916e-02  1.654475892748940e-01  9.961178793657243e-01 -4.264273746957458e-02  2.383277665564146e-03 -7.697458890180713e-02  2.507328347575180e-01 -1.466355220541542e-01 -2.911678140219336e-01
2 1 2 -4.543632505039719e-01 -9.925920764885569e-01  7.184736179176137e-01 0 0 0 -4.494997322792908e-02  2.494963647333186e-01 -1.701576647586733e-01  9.370956120919768e-01  1.086526788331384e-01  6.357532027830032e-02  3.255834575525267e-01 -4.959895932852718e-02 -1.015515781378628e-01  1.412881303319897e-02
3 1 3 -1.075801175841210e-01 -1.244506234495858e+00  1.069118120347194e+00 0 0 0 -2.295002381296386e-01 -9.973839375133489e-02  4.224044902798053e-02  8.027114628018658e-01  1.450204002105626e-01  1.770710759545130e-01  5.506988515237421e-01  1.369627143825192e-01 -1.682831626887156e-01 -1.727782760699543e-01
4 1 4  2.847006918121564e-01 -1.279655366004089e+00  1.425764857810598e+00 0 0 0 -2.142653748212114e-01 -5.193745244315071e-01 -3.727381805263219e-02  5.534784481048372e-01  1.492146332237657e-01  1.164353864319831e-01  8.110729939418480e-01 -2.852598802500234e-01  2.458439577167800e-01  3.516158472975244e-01
5 1 1  6.225099423835241e-01 -1.027473494191030e+00  1.763570901265756e+00 0 0 0 -1.476637294350493e-01 -2.263616395684782e-01 -1.294755517424736e-01  2.477268237737465e-01  1.173600155219230e-01  8.244880313844345e-02  9.581546025567603e-01  6.983762545781684e-02 -6.715186990875642e-02  1.186714163665130e-01
6 1 2  7.883139214719269e-01 -6.697123566198989e-01  2.160430735146359e+00 0 0 0 -4.466190195685495e-02  1.503390882315556e-01  1.751614218768915e-01 -4.389275832561715e-02  5.995162866376114e-02  1.978903038303717e-02  9.970394286404279e-01  7.842009000863967e-02 -4.660861114447613e-01  1.459929936184698e-01
7 1 3  7.135811968518042e-01 -4.030503650724876e-01  2.565101238646329e+00 0 0 0  4.887699735959629e-02 -1.530409857418533e-02 -7.919095987574375e-02 -4.512694827785508e-01  1.099238179496857e-01 -7.470740698083207e-02  8.824349332966958e-01  2.950711116927432e-01  3.883648629996092e-01 -1.093694368570922e-01
8 1 4  4.854521441510080e-01 -3.048959306811798e-01  3.072421240889603e+00 0 0 0  4.072868338248945e-01 -6.929327598158197e-02  1.180711442940089e-01  7.641235303506880e-01 -1.040326434392211e-02  4.139462148247256e-02 -6.436563429095641e-01  5.467375767834290e-02  1.097727393202452e-01 -1.273232794253353e-01
9 2 1  4.068938790996867e-01 -1.442141293224043e+00  3.058492218003702e+00 0 0 0  1.493254617777362e-02  4.072735193843273e-02 -4.136106864474987e-02 -2.322462476183619e-01  6.833998422735884e-01  6.801745103823504e-01 -1.280194183464176e-01 -6.486029889415650e-03 -1.311689643905533e-02  1.749554994039641e-01
10 2 2 -2.404359707952467e-02 -1.289626477287043e+00  2.719022266154833e+00 0 0 0  2.038252055109185e-01  1.445631106032608e-01 -1.269749057505944e-02 -2.319301513070267e-01  8.841506155893196e-01  3.870019917114799e-01 -1.213076760929613e-01 -2.198082247102603e-01 -4.780156685816088e-01 -2.222738017615913e-01
11 2 3 -3.306208992712556e-01 -9.150900238744936e-01  2.426163402817536e+00 0 0 0 -3.709111875598505e-01 -1.431309844475084e-01  3.138220266286295e-01 -6.843797910649016e-02  9.807813021353420e-01  1.475281260964373e-01 -1.077948626233946e-01 -3.173713879227258e-01 -4.595396032625115e-01  2.636013800331480e-02
12 2 4 -3.943668704457515e-01 -4.791622457217209e-01  2.007577954424632e+00 0 0 0 -1.296368082227858e-01  1.493836006055227e-01  6.074087682569400e-02 -1.800172687534689e-02  9.642961203459232e-01 -2.414936700550505e-01 -1.071901928286764e-01 -2.660885894957780e-01  1.077418293135795e-01  8.844443965816552e-02
13 3 1 -6.767275455973540e-02 -7.632873226130869e-02  1.563115780160094e+00 0 0 0 -1.220349921045690e-01 -1.232996758808731e-01  5.584119124941504e-02 -1.666248282403800e-02  7.940713725051057e-01 -6.065097860431117e-01 -3.631661421353820e-02 -1.829920387148026e-01  2.971506914183960e-01  8.319309378483784e-02
14 3 2  1.811950230657389e-01 -7.003118277051951e-02  1.019641804369596e+00 0 0 0  6.432190064572330e-02 -3.743140640939607e-01 -1.548348928282168e-02  5.279480254362327e-02  6.395466507096638e-01 -7.667901290158490e-01  1.502293028303897e-02 -1.280191527118855e-01  4.971081151500516e-02  2.430607838828376e-01
15 3 3  4.432592359868355e-01 -2.286513363419935e-01  5.961683497743818e-01 0 0 0 -2.015994803213420e-01  2.287108810657125e-01  1.202362242804678e-02 -6.223103675288027e-02 -3.297987898691576e-01  9.419869912581482e-01  4.534817077042256e-03 -2.390162411309540e-01  4.620454172944539e-04 -2.801482329488967e-01
16 3 4  4.998945364402362e-01 -5.592233008366646e-01  1.640948380055446e-01 0 0 0 -2.006878085686205e-01 -5.111875754094265e-02 -2.585189333203386e-02 -7.068062760779764e-02 -2.266053086885537e-03  9.951847386910625e-01 -6.787083144309639e-02  2.210371968194767e-02 -3.171220720191028e-01  6.801600012171737e-02
ITEM: TIMESTEP
5000
ITEM: NUMBER OF ATOMS
16
ITEM: BOX BOUNDS pp pp pp
-2.0000000000000000e+01 2.0000000000000000e+01
-2.0000000000000000e+01 2.0000000000000000e+01
-2.0000000000000000e+01 2.0000000000000000e+01
ITEM: ATOMS id mol type x y z ix iy iz vx vy vz c_quat[1] c_quat[2] c_quat[3] c_quat[4] angmomx angmomy angmomz
1 1 1 -6.110673602880003e-01 -6.575448144395279e-01  3.706186781268934e-01 0 0 0  3.432510649819292e-02 -2.111310458570620e-02  1.367853337591950e-01  9.959774411942381e-01 -3.955267350825439e-02  1.332069615960268e-03 -8.039121992522272e-02  2.685444506834911e-01 -1.019130016419596e-01 -2.964555988396626e-01
2 1 2 -4.548097979920949e-01 -9.901410665211501e-01  7.168405095640180e-01 0 0 0 -4.421563205324432e-02  2.404722709763690e-01 -1.558459247696320e-01  9.371972818752106e-01  1.077373646230589e-01  6.265887131315549e-02  3.257725908598767e-01 -4.711200551155631e-02 -1.050173984746535e-01  3.492994889110219e-03
3 1 3 -1.099023646486408e-01 -1.245456112396223e+00  1.069661715378407e+00 0 0 0 -2.349494375248830e-01 -9.020426824481671e-02  6.633858041990300e-02  8.039145131324619e-01  1.456792091117640e-01  1.741207231519490e-01  5.497099211189574e-01  1.767326950064728e-01 -1.928202757801169e-01 -1.752184969404721e-01
4 1 4  2.825892484931712e-01 -1.284785688430790e+00  1.425314788933159e+00 0 0 0 -2.080294448257194e-01 -5.065519148281059e-01 -5.251958930810006e-02  5.503833727883437e-01  1.490923574081059e-01  1.213340217228061e-01  8.124824103284887e-01 -3.085957244561003e-01  2.349317259773771e-01  3.505291395554629e-01
5 1 1  6.210503823269286e-01 -1.029726610000290e+00  1.762296384837666e+00 0 0 0 -1.442584274608660e-01 -2.241591601197787e-01 -1.252787815049921e-01  2.463947182602319e-01  1.167517600237874e-01  8.166605924418406e-02  9.586393086621967e-01  6.857537553875394e-02 -5.877320720568185e-02  1.173245335110893e-01
6 1 2  7.878709848560155e-01 -6.682760674456623e-01  2.162218904029845e+00 0 0 0 -4.392288892418734e-02  1.367297096803821e-01  1.824348162418021e-01 -4.557175378977913e-02  5.472859556984675e-02  1.924960871580346e-02  9.972750115428365e-01  7.330417058917645e-02 -4.324476424226733e-01  1.557276231527196e-01
7 1 3  7.140655412404560e-01 -4.031705261518114e-01  2.564394532598032e+00 0 0 0  4.795559646218772e-02 -8.679358835735673e-03 -6.209761111790901e-02 -4.502316186740762e-01  1.122173965215880e-01 -7.973962876267433e-02  8.822359871762367e-01  2.804168979432696e-01  3.763492836266540e-01 -1.007753122993582e-01
8 1 4  4.895595657850760e-01 -3.056127926758614e-01  3.073545739028499e+00 0 0 0  4.141728235183038e-01 -7.406182802645490e-02  1.068424780832648e-01  7.631331781425743e-01 -1.068972527929008e-02  4.282647344578477e-02 -6.447320182553872e-01  5.815346565491970e-02  1.179862464767386e-01 -1.272250217703788e-01
9 2 1  4.070005341894986e-01 -1.441733402036366e+00  3.058011984483653e+00 0 0 0  6.409859964009718e-03  4.087094035133778e-02 -5.465716142319328e-02 -2.317795786344787e-01  6.820715196153377e-01  6.815833652742942e-01 -1.284553822890091e-01 -1.547043057484299e-02 -1.772944183807005e-02  1.778178540316854e-01
10 2 2 -2.199973216112938e-02 -1.288143250595286e+00  2.718934033503033e+00 0 0 0  2.048446810284990e-01  1.520052798931069e-01 -4.909977152938882e-03 -2.277920814985707e-01  8.863373200275572e-01  3.858173823834778e-01 -1.168840031128199e-01 -2.323962540189648e-01 -4.796529066920261e-01 -1.984083765713108e-01