LAMMPS (29 Aug 2024 - Development - patch_29Aug2024-407-g4bfcc0ee41-modified)
KOKKOS mode with Kokkos version 4.3.1 is enabled (../kokkos.cpp:72)
package kokkos
package kokkos comm device
###
# Box and units  (use LJ units and periodic boundaries)
###

units           lj
atom_style      ellipsoid
dimension	3
boundary	p p p

lattice		sc 0.75
Lattice spacing in x,y,z = 1.1006424 1.1006424 1.1006424
region		box block 0 64 0 64 0 64
create_box	1 box
Created orthogonal box = (0 0 0) to (70.441115 70.441115 70.441115)
  1 by 2 by 3 MPI processor grid
create_atoms	1 box
Created 262144 atoms
  using lattice units in orthogonal box = (0 0 0) to (70.441115 70.441115 70.441115)
  create_atoms CPU = 0.016 seconds

group           all type 1
262144 atoms in group all
set             type 1 mass 1.0
Setting atom values ...
  262144 settings made for mass
set             type 1 shape 1.0 0.4 0.8
Setting atom values ...
  262144 settings made for shape
set             type 1 quat/random 29898
Setting atom values ...
  262144 settings made for quat/random

velocity 	all create 0.1 87287 loop geom

neighbor        0.3 bin
neigh_modify    delay 0 every 100 check yes

###################################################################
# Pair interaction between non-bonded atoms
#
#  Lennard-Jones 12-6 potential with cutoff:
#  potential E=4epsilon[ (sigma/r)^12 - (sigma/r)^6]  for r<r_cut
#
#  1.12246152962189 = 2^(1/6) is the minimum of the potential

pair_style      lj/cut 1.12246152962189

#
#  pair_coeff for lj/cut, specify 4:
#    * atom type interacting with
#    * atom type
#    * epsilon (energy units)
#    * sigma (distance units)
#

pair_coeff      1 1 1.0 1.1

#
#  pair_modify shift yes adds a constant to the potential such
#  that E(r_cut)=0. Forces remains unchanged.
#

pair_modify     shift yes

###################################################
reset_atoms 	id sort yes
Resetting atom IDs ...
Generated 0 of 0 mixed pair_coeff terms from geometric mixing rule
Neighbor list info ...
  update: every = 100 steps, delay = 0 steps, check = yes
  max neighbors/atom: 2000, page size: 100000
  master list distance cutoff = 1.4224615
  ghost atom cutoff = 1.4224615
  binsize = 0.71123076, bins = 100 100 100
  1 neighbor lists, perpetual/occasional/extra = 1 0 0
  (1) pair lj/cut/kk, perpetual
      attributes: half, newton on, kokkos_device
      pair build: half/bin/newton/kk/device
      stencil: half/bin/3d
      bin: kk/device

comm_modify cutoff 6
#comm_style tiled
#balance 1.2 rcb

###
# Set up fixes
###

fix 1 all   nve   ###NVE ensemble
#fix 2 all   langevin   1.0 1.0   2.0   424242   ###Langevin integrator Tstart Tstop 1/friction rndseed

compute ekin all ke
compute epot all pe
variable ekin equal c_ekin
variable epot equal c_epot
variable etot equal c_ekin+c_epot

fix 3 all print 5000 "$(step)  ekin = ${ekin} | epot = ${epot} | etot = ${etot}" screen yes

compute q all property/atom quatw quati quatj quatk
compute diameter all property/atom shapex shapey shapez
dump 1 all custom 5000 dump.polymer id type x y z c_q[1] c_q[2] c_q[3] c_q[4] c_diameter[1] c_diameter[2] c_diameter[3]
dump_modify 1 colname c_q[1] quatw colname c_q[2] quati colname c_q[3] quatj colname c_q[4] quatk

###################################################

timestep 0.0001 #0.012

run 20000
Generated 0 of 0 mixed pair_coeff terms from geometric mixing rule
0  ekin = 39321.4499999999 | epot = 307296.108289678 | etot = 346617.558289678
Per MPI rank memory allocation (min/avg/max) = 37.62 | 37.88 | 38.16 Mbytes
   Step          Temp          E_pair         E_mol          TotEng         Press     
         0   0.1            1.1722416      0              1.3222411      17.886605    
5000  ekin = 211870.45322075 | epot = 134748.525788182 | etot = 346618.979008933
10000  ekin = 223996.828466812 | epot = 122623.186573194 | etot = 346620.015040006
15000  ekin = 226602.22891927 | epot = 120019.635082253 | etot = 346621.864001524
20000  ekin = 227410.527400829 | epot = 119212.856607615 | etot = 346623.384008444
     20000   0.57833708     0.45476096     0              1.3222633      6.3048359    
Loop time of 2014.6 on 6 procs for 20000 steps with 262144 atoms

Performance: 85.774 tau/day, 9.928 timesteps/s, 2.602 Matom-step/s
99.2% CPU use with 6 MPI tasks x 1 OpenMP threads

MPI task timing breakdown:
Section |  min time  |  avg time  |  max time  |%varavg| %total
---------------------------------------------------------------
Pair    | 660.15     | 666.18     | 669.31     |  13.2 | 33.07
Neigh   | 8.4697     | 8.5258     | 8.5566     |   1.0 |  0.42
Comm    | 823.9      | 827.46     | 834.76     |  13.3 | 41.07
Output  | 0.309      | 0.32981    | 0.34973    |   2.4 |  0.02
Modify  | 309.2      | 311.51     | 313.2      |   8.2 | 15.46
Other   |            | 200.6      |            |       |  9.96

Nlocal:        43690.7 ave       43764 max       43584 min
Histogram: 2 0 0 0 0 0 0 1 2 1
Nghost:        59965.7 ave       60193 max       59831 min
Histogram: 2 1 0 1 0 0 0 1 0 1
Neighs:         222764 ave      223227 max      222261 min
Histogram: 2 0 0 1 0 0 0 0 1 2

Total # of neighbors = 1336583
Ave neighs/atom = 5.0986595
Neighbor list builds = 43
Dangerous builds = 0

write_data data_out.* nocoeff
System init for write_data ...
Generated 0 of 0 mixed pair_coeff terms from geometric mixing rule
Total wall time: 0:33:44
