LAMMPS data file via write_data, version 10 Sep 2025, timestep = 10000, units = lj

8 atoms
1 atom types
8 ellipsoids

-2 2 xlo xhi
-2 2 ylo yhi
-5 5 zlo zhi

Atoms # ellipsoid/kk

7 1 1 238.7324039657 0 0 -2.857645769000248 0 0 10
8 1 1 238.7324039657 0 0 -4.061510052377728 0 0 10
5 1 1 238.7324039657 0 0 -0.5406813413691828 0 0 10
6 1 1 238.7324039657 0 0 -1.8847569944578886 0 0 10
3 1 1 238.7324039657 0 0 1.8847569944577387 0 0 10
4 1 1 238.7324039657 0 0 0.5406813413687948 0 0 10
1 1 1 238.7324039657 0 0 4.061510052377992 0 0 10
2 1 1 238.7324039657 0 0 2.857645769000157 0 0 10

Velocities

7 0 0 10.050521879242757 0 0 0
8 0 0 9.92240065402727 0 0 0
5 0 0 9.731415060491814 0 0 0
6 0 0 9.847858422073626 0 0 0
3 0 0 10.15214157792664 0 0 0
4 0 0 10.268584939508111 0 0 0
1 0 0 10.07759934597266 0 0 0
2 0 0 9.949478120757083 0 0 0

Ellipsoids

7 0.5 1 0.5 0.7071067811865476 0 0.7071067811865476 0
8 1 0.5 0.5 0.5773502691896257 0.5773502691896257 0.5773502691896257 0
5 0.5 1 0.5 0 0.7071067811865476 0 0.7071067811865476
6 0.5 0.5 1 0.7071067811865476 0 0 0.7071067811865476
3 1 0.5 0.5 0.9237852583388739 0 0.3829109511045357 0
4 0.5 0.5 1 0.9237852583388739 0 0 0.3829109511045357
1 0.5 0.5 1 1 0 0 0
2 0.5 1 0.5 0.9237852583388739 0.3829109511045357 0 0
