LAMMPS data file via write_data, version 2 Aug 2023, timestep = 250000, units = lj

10 atoms
1 atom types
9 bonds
1 bond types

-20 20 xlo xhi
-20 20 ylo yhi
-20 20 zlo zhi

Masses

1 1

Atoms # hybrid/kk

1 1 4.5350542016537245 -2.3462464353049515 -4.621634854811675 1 1 238.7324039657 0 0 0
3 1 4.405932202522471 -3.274478404228444 -3.4982256567379824 1 1 238.7324039657 0 0 0
4 1 5.004032928110368 -3.4974820556426547 -2.8482737998992667 1 1 238.7324039657 0 0 0
5 1 5.854209300461964 -3.422308729577533 -2.3216461237264134 1 1 238.7324039657 0 0 0
2 1 5.346066625359775 -2.9516360516792473 -4.241578243258358 1 1 238.7324039657 0 0 0
6 1 5.6713360307321175 -2.489423417122524 -1.9584588762682715 1 1 238.7324039657 0 0 0
7 1 6.2333292634292645 -1.932657902322381 -1.1808935527657365 1 1 238.7324039657 0 0 0
8 1 6.562109478388704 -2.212499632893426 -0.27175367077929174 1 1 238.7324039657 0 0 0
10 1 5.035310227945616 -2.449665831963424 0.8122130179214077 1 1 238.7324039657 0 0 0
9 1 5.671783401796422 -2.493403533765142 0.2318839223251501 1 1 238.7324039657 0 0 0

Velocities

1 0.13044732811591722 0.06544199682437189 -0.14576433231304875 0 0 0
3 0.0016054201613911378 0.10092928035054438 -0.054934944953933806 0 0 0
4 0.01648378980486747 -0.040824303741032436 0.1665475097747643 0 0 0
5 -0.11551812894133673 0.20102445221486462 0.10890162081185821 0 0 0
2 -0.0984280961618261 -0.1610094712692929 -0.08119853190608345 0 0 0
6 0.1302326945183678 0.0556749581723701 -0.054251838878458115 0 0 0
7 -0.3188952639861822 -0.36544620159538027 0.20483788603588554 0 0 0
8 -0.20008029871743804 0.22987030541724807 0.025958122684206022 0 0 0
10 -0.010792753903912803 -0.008136889468658244 0.005208741557170468 0 0 0
9 0.4649453091101599 -0.07752412690502326 -0.17530423281237603 0 0 0

Bonds

1 1 1 2
2 1 3 4
3 1 4 5
4 1 5 6
5 1 2 3
6 1 6 7
7 1 7 8
8 1 8 9
9 1 9 10
