ITEM: TIMESTEP
0
ITEM: NUMBER OF ATOMS
10
ITEM: BOX BOUNDS pp pp pp
-2.0000000000000000e+01 2.0000000000000000e+01
-2.0000000000000000e+01 2.0000000000000000e+01
-2.0000000000000000e+01 2.0000000000000000e+01
ITEM: ATOMS id type xs ys zs
1 1 0.591802 0.409513 0.338737
2 1 0.596481 0.413821 0.364912
3 1 0.60315 0.419033 0.388859
4 1 0.616872 0.424151 0.410107
5 1 0.631649 0.427068 0.433311
6 1 0.637478 0.433582 0.456952
7 1 0.657579 0.44253 0.484551
8 1 0.672917 0.445699 0.512567
9 1 0.674281 0.450152 0.544835
10 1 0.675771 0.457706 0.56771
ITEM: TIMESTEP
1000
ITEM: NUMBER OF ATOMS
10
ITEM: BOX BOUNDS pp pp pp
-2.0000000000000000e+01 2.0000000000000000e+01
-2.0000000000000000e+01 2.0000000000000000e+01
-2.0000000000000000e+01 2.0000000000000000e+01
ITEM: ATOMS id type xs ys zs
1 1 0.591811 0.409522 0.33879
2 1 0.59648 0.413819 0.36489
3 1 0.603162 0.419034 0.388861
4 1 0.616883 0.42415 0.410126
5 1 0.631623 0.42707 0.433287
6 1 0.637579 0.433622 0.457072
7 1 0.657523 0.442493 0.484498
8 1 0.67287 0.445704 0.512587
9 1 0.674276 0.450136 0.544721
10 1 0.675771 0.457705 0.567709
ITEM: TIMESTEP
2000
ITEM: NUMBER OF ATOMS
10
ITEM: BOX BOUNDS pp pp pp
-2.0000000000000000e+01 2.0000000000000000e+01
-2.0000000000000000e+01 2.0000000000000000e+01
-2.0000000000000000e+01 2.0000000000000000e+01
ITEM: ATOMS id type xs ys zs
1 1 0.59184 0.409548 0.338949
2 1 0.596478 0.413814 0.364827
3 1 0.6032 0.419038 0.388866
4 1 0.616918 0.424145 0.410182
5 1 0.631546 0.427075 0.433222
6 1 0.637869 0.433736 0.457411
7 1 0.657366 0.442386 0.484353
8 1 0.672729 0.445719 0.512642
9 1 0.674262 0.450092 0.544391
10 1 0.67577 0.457702 0.567699
ITEM: TIMESTEP
3000
ITEM: NUMBER OF ATOMS
10
ITEM: BOX BOUNDS pp pp pp
-2.0000000000000000e+01 2.0000000000000000e+01
-2.0000000000000000e+01 2.0000000000000000e+01
-2.0000000000000000e+01 2.0000000000000000e+01
ITEM: ATOMS id type xs ys zs
1 1 0.591886 0.409591 0.339208
2 1 0.596477 0.413806 0.364731
3 1 0.603264 0.419043 0.388872
4 1 0.616973 0.424137 0.410271
5 1 0.631426 0.427089 0.433133
6 1 0.638317 0.433908 0.457918
7 1 0.657138 0.442224 0.484159
8 1 0.672491 0.445739 0.512713
9 1 0.67424 0.450028 0.543874
10 1 0.675768 0.45769 0.567661
ITEM: TIMESTEP
4000
ITEM: NUMBER OF ATOMS
10
ITEM: BOX BOUNDS pp pp pp
-2.0000000000000000e+01 2.0000000000000000e+01
-2.0000000000000000e+01 2.0000000000000000e+01
-2.0000000000000000e+01 2.0000000000000000e+01
ITEM: ATOMS id type xs ys zs
1 1 0.591949 0.409648 0.339559
2 1 0.59648 0.413799 0.364614
3 1 0.603352 0.419049 0.388877
4 1 0.617045 0.424125 0.410388
5 1 0.63127 0.427117 0.433043
6 1 0.638887 0.434119 0.458537
7 1 0.656871 0.442021 0.483962
8 1 0.672154 0.445762 0.512777
9 1 0.674209 0.449953 0.54321
10 1 0.675762 0.457662 0.567574
ITEM: TIMESTEP
5000
ITEM: NUMBER OF ATOMS
10
ITEM: BOX BOUNDS pp pp pp
-2.0000000000000000e+01 2.0000000000000000e+01
-2.0000000000000000e+01 2.0000000000000000e+01
-2.0000000000000000e+01 2.0000000000000000e+01
ITEM: ATOMS id type xs ys zs
1 1 0.592026 0.409719 0.339987
2 1 0.596489 0.413795 0.364493
3 1 0.603465 0.419057 0.388879
4 1 0.61713 0.424109 0.410525
5 1 0.63109 0.427163 0.432973
6 1 0.639545 0.434352 0.459215
7 1 0.656594 0.441792 0.483804
8 1 0.671718 0.445781 0.512808
9 1 0.674171 0.449875 0.542438
10 1 0.675752 0.457611 0.567417
ITEM: TIMESTEP
6000
ITEM: NUMBER OF ATOMS
10
ITEM: BOX BOUNDS pp pp pp
-2.0000000000000000e+01 2.0000000000000000e+01
-2.0000000000000000e+01 2.0000000000000000e+01
-2.0000000000000000e+01 2.0000000000000000e+01
ITEM: ATOMS id type xs ys zs
1 1 0.592113 0.4098 0.340474
2 1 0.596511 0.413799 0.364394
3 1 0.603602 0.419064 0.388877
4 1 0.617221 0.424087 0.410675
5 1 0.630898 0.427233 0.432944
6 1 0.640263 0.434595 0.459912
7 1 0.656329 0.441548 0.483717
8 1 0.671182 0.445794 0.512786
9 1 0.674124 0.449802 0.54159
10 1 0.675736 0.457534 0.567172
ITEM: TIMESTEP
7000
ITEM: NUMBER OF ATOMS
10
ITEM: BOX BOUNDS pp pp pp
-2.0000000000000000e+01 2.0000000000000000e+01
-2.0000000000000000e+01 2.0000000000000000e+01
-2.0000000000000000e+01 2.0000000000000000e+01
ITEM: ATOMS id type xs ys zs
1 1 0.592207 0.409885 0.340992
2 1 0.59655 0.413815 0.364345
3 1 0.603763 0.419072 0.388869
4 1 0.617315 0.424058 0.41083
5 1 0.630705 0.42733 0.432977
6 1 0.641016 0.434836 0.460592
7 1 0.656088 0.441299 0.483718
8 1 0.670551 0.445795 0.512697
9 1 0.674069 0.449739 0.540695
10 1 0.675714 0.457426 0.566826
ITEM: TIMESTEP
8000
ITEM: NUMBER OF ATOMS
10
ITEM: BOX BOUNDS pp pp pp
-2.0000000000000000e+01 2.0000000000000000e+01
-2.0000000000000000e+01 2.0000000000000000e+01
-2.0000000000000000e+01 2.0000000000000000e+01
ITEM: ATOMS id type xs ys zs
1 1 0.592299 0.40997 0.341506
2 1 0.596615 0.41385 0.364384
3 1 0.603948 0.419079 0.388856
4 1 0.617405 0.424023 0.410981
5 1 0.630525 0.427459 0.43309
6 1 0.641784 0.435065 0.461227
7 1 0.65588 0.441052 0.483818
8 1 0.669833 0.445784 0.512536
9 1 0.674004 0.44969 0.539776
10 1 0.675685 0.457284 0.566366
ITEM: TIMESTEP
9000
ITEM: NUMBER OF ATOMS
10
ITEM: BOX BOUNDS pp pp pp
-2.0000000000000000e+01 2.0000000000000000e+01
-2.0000000000000000e+01 2.0000000000000000e+01
-2.0000000000000000e+01 2.0000000000000000e+01
ITEM: ATOMS id type xs ys zs
1 1 0.592384 0.410048 0.341978
2 1 0.596713 0.413909 0.364549
3 1 0.604157 0.419087 0.388841
4 1 0.61749 0.423981 0.411123
5 1 0.630371 0.427623 0.433304
6 1 0.642544 0.435274 0.461787
7 1 0.655706 0.440811 0.484017
8 1 0.669038 0.445757 0.512303
9 1 0.673928 0.449657 0.538853
10 1 0.675648 0.457109 0.565786
ITEM: TIMESTEP
10000
ITEM: NUMBER OF ATOMS
10
ITEM: BOX BOUNDS pp pp pp
-2.0000000000000000e+01 2.0000000000000000e+01
-2.0000000000000000e+01 2.0000000000000000e+01
-2.0000000000000000e+01 2.0000000000000000e+01
ITEM: ATOMS id type xs ys zs
1 1 0.592455 0.410113 0.342379
2 1 0.596849 0.413998 0.364864
3 1 0.604392 0.419096 0.38883
4 1 0.617566 0.423933 0.411255
5 1 0.630255 0.427825 0.433633
6 1 0.643272 0.435452 0.462242
7 1 0.655569 0.440581 0.484315
8 1 0.668179 0.445716 0.512002
9 1 0.673838 0.449642 0.537941
10 1 0.675603 0.456898 0.56508
ITEM: TIMESTEP
11000
ITEM: NUMBER OF ATOMS
10
ITEM: BOX BOUNDS pp pp pp
-2.0000000000000000e+01 2.0000000000000000e+01
-2.0000000000000000e+01 2.0000000000000000e+01
-2.0000000000000000e+01 2.0000000000000000e+01
ITEM: ATOMS id type xs ys zs
1 1 0.59251 0.410165 0.3427
2 1 0.597023 0.414115 0.365328
3 1 0.604655 0.419108 0.388833
4 1 0.617636 0.423879 0.411379
5 1 0.630187 0.428067 0.434084
6 1 0.643948 0.435595 0.462567
7 1 0.655468 0.440365 0.484708
8 1 0.667268 0.445661 0.511643
9 1 0.673734 0.449646 0.537053
10 1 0.67555 0.456653 0.564245
ITEM: TIMESTEP
12000
ITEM: NUMBER OF ATOMS
10
ITEM: BOX BOUNDS pp pp pp
-2.0000000000000000e+01 2.0000000000000000e+01
-2.0000000000000000e+01 2.0000000000000000e+01
-2.0000000000000000e+01 2.0000000000000000e+01
ITEM: ATOMS id type xs ys zs
1 1 0.592553 0.410207 0.342961
2 1 0.597226 0.414255 0.365908
3 1 0.604948 0.419127 0.388865
4 1 0.617703 0.423824 0.4115
5 1 0.63017 0.428348 0.434654
6 1 0.644559 0.435696 0.462752
7 1 0.6554 0.440165 0.485188
8 1 0.666317 0.445592 0.511234
9 1 0.673614 0.449668 0.536197
10 1 0.675488 0.456374 0.563281
ITEM: TIMESTEP
13000
ITEM: NUMBER OF ATOMS
10
ITEM: BOX BOUNDS pp pp pp
-2.0000000000000000e+01 2.0000000000000000e+01
-2.0000000000000000e+01 2.0000000000000000e+01
-2.0000000000000000e+01 2.0000000000000000e+01
ITEM: ATOMS id type xs ys zs
1 1 0.592591 0.410243 0.343194
2 1 0.597446 0.414406 0.366549
3 1 0.605277 0.419156 0.388948
4 1 0.617772 0.423768 0.411629
5 1 0.630205 0.428661 0.435329
6 1 0.645097 0.435758 0.462798
7 1 0.655359 0.439981 0.48574
8 1 0.665339 0.44551 0.510786
9 1 0.673476 0.449706 0.535377
10 1 0.675418 0.456065 0.562191
ITEM: TIMESTEP
14000
ITEM: NUMBER OF ATOMS
10
ITEM: BOX BOUNDS pp pp pp
-2.0000000000000000e+01 2.0000000000000000e+01
-2.0000000000000000e+01 2.0000000000000000e+01
-2.0000000000000000e+01 2.0000000000000000e+01
ITEM: ATOMS id type xs ys zs
1 1 0.59263 0.41028 0.343432
2 1 0.597667 0.414558 0.367189
3 1 0.60565 0.4192 0.389108
4 1 0.617848 0.423717 0.411776
5 1 0.630286 0.429001 0.436087
6 1 0.645564 0.435785 0.462724
7 1 0.655333 0.43981 0.486339
8 1 0.664345 0.44542 0.510316
9 1 0.673318 0.449758 0.534589
10 1 0.675338 0.455727 0.56098
ITEM: TIMESTEP
15000
ITEM: NUMBER OF ATOMS
10
ITEM: BOX BOUNDS pp pp pp
-2.0000000000000000e+01 2.0000000000000000e+01
-2.0000000000000000e+01 2.0000000000000000e+01
-2.0000000000000000e+01 2.0000000000000000e+01
ITEM: ATOMS id type xs ys zs
1 1 0.592675 0.410323 0.343702
2 1 0.597872 0.414698 0.367773
3 1 0.606074 0.419266 0.389371
4 1 0.617939 0.423674 0.411957
5 1 0.630406 0.429359 0.4369
6 1 0.645966 0.435781 0.462559
7 1 0.655308 0.439645 0.486946
8 1 0.663352 0.445325 0.509848
9 1 0.673136 0.44982 0.533826
10 1 0.675251 0.455363 0.559658
ITEM: TIMESTEP
16000
ITEM: NUMBER OF ATOMS
10
ITEM: BOX BOUNDS pp pp pp
-2.0000000000000000e+01 2.0000000000000000e+01
-2.0000000000000000e+01 2.0000000000000000e+01
-2.0000000000000000e+01 2.0000000000000000e+01
ITEM: ATOMS id type xs ys zs
1 1 0.592731 0.410375 0.34402
2 1 0.598049 0.414821 0.368266
3 1 0.606552 0.419354 0.38975
4 1 0.618053 0.423645 0.412186
5 1 0.630556 0.429727 0.437741
6 1 0.646312 0.435755 0.462334
7 1 0.655263 0.439476 0.487504
8 1 0.662379 0.445237 0.509426
9 1 0.672927 0.449886 0.533074
10 1 0.675155 0.454979 0.558239
ITEM: TIMESTEP
17000
ITEM: NUMBER OF ATOMS
10
ITEM: BOX BOUNDS pp pp pp
-2.0000000000000000e+01 2.0000000000000000e+01
-2.0000000000000000e+01 2.0000000000000000e+01
-2.0000000000000000e+01 2.0000000000000000e+01
ITEM: ATOMS id type xs ys zs
1 1 0.5928 0.410438 0.344395
2 1 0.598198 0.414924 0.368658
3 1 0.607081 0.419464 0.390237
4 1 0.618198 0.423634 0.412482
5 1 0.630727 0.430097 0.438586
6 1 0.64661 0.435711 0.462079
7 1 0.655172 0.439284 0.487929
8 1 0.661454 0.445173 0.509119
9 1 0.672687 0.449951 0.532313
10 1 0.675052 0.454579 0.556743
ITEM: TIMESTEP
18000
ITEM: NUMBER OF ATOMS
10
ITEM: BOX BOUNDS pp pp pp
-2.0000000000000000e+01 2.0000000000000000e+01
-2.0000000000000000e+01 2.0000000000000000e+01
-2.0000000000000000e+01 2.0000000000000000e+01
ITEM: ATOMS id type xs ys zs
1 1 0.592881 0.410511 0.344829
2 1 0.598323 0.415011 0.368966
3 1 0.607646 0.41959 0.390801
4 1 0.618383 0.423648 0.412864
5 1 0.630912 0.430461 0.439409
6 1 0.646866 0.435654 0.46182
7 1 0.655008 0.439042 0.488118
8 1 0.660604 0.44516 0.509015
9 1 0.672411 0.450008 0.531518
10 1 0.674945 0.45417 0.555199
ITEM: TIMESTEP
19000
ITEM: NUMBER OF ATOMS
10
ITEM: BOX BOUNDS pp pp pp
-2.0000000000000000e+01 2.0000000000000000e+01
-2.0000000000000000e+01 2.0000000000000000e+01
-2.0000000000000000e+01 2.0000000000000000e+01
ITEM: ATOMS id type xs ys zs
1 1 0.592975 0.410594 0.345317
2 1 0.598437 0.415089 0.369224
3 1 0.608229 0.419722 0.391401
4 1 0.618618 0.423693 0.413354
5 1 0.631101 0.430811 0.44019
6 1 0.647084 0.435589 0.461576
7 1 0.654759 0.438732 0.488009
8 1 0.659839 0.445215 0.509162
9 1 0.672099 0.450051 0.530654
10 1 0.674838 0.45376 0.553653
ITEM: TIMESTEP
20000
ITEM: NUMBER OF ATOMS
10
ITEM: BOX BOUNDS pp pp pp
-2.0000000000000000e+01 2.0000000000000000e+01
-2.0000000000000000e+01 2.0000000000000000e+01
-2.0000000000000000e+01 2.0000000000000000e+01
ITEM: ATOMS id type xs ys zs
1 1 0.593079 0.410686 0.34585
2 1 0.598555 0.415164 0.369468
3 1 0.608812 0.419852 0.391999
4 1 0.618911 0.423773 0.413968
5 1 0.631287 0.43114 0.440908
6 1 0.647269 0.435518 0.461361
7 1 0.654439 0.438363 0.487635
8 1 0.659137 0.445325 0.509503
9 1 0.671752 0.450073 0.529682
10 1 0.674738 0.45336 0.552166
ITEM: TIMESTEP
21000
ITEM: NUMBER OF ATOMS
10
ITEM: BOX BOUNDS pp pp pp
-2.0000000000000000e+01 2.0000000000000000e+01
-2.0000000000000000e+01 2.0000000000000000e+01
-2.0000000000000000e+01 2.0000000000000000e+01
ITEM: ATOMS id type xs ys zs
1 1 0.59319 0.410783 0.346415
2 1 0.598689 0.415244 0.369731
3 1 0.609381 0.419976 0.392567
4 1 0.619265 0.423891 0.414715
5 1 0.631459 0.431444 0.441546
6 1 0.647428 0.435443 0.461187
7 1 0.654076 0.437963 0.487086
8 1 0.658451 0.445456 0.509909
9 1 0.671385 0.450077 0.528583
10 1 0.674654 0.452978 0.550801
ITEM: TIMESTEP
22000
ITEM: NUMBER OF ATOMS
10
ITEM: BOX BOUNDS pp pp pp
-2.0000000000000000e+01 2.0000000000000000e+01
-2.0000000000000000e+01 2.0000000000000000e+01
-2.0000000000000000e+01 2.0000000000000000e+01
ITEM: ATOMS id type xs ys zs
1 1 0.593305 0.410884 0.346995
2 1 0.598851 0.415336 0.370047
3 1 0.60993 0.42009 0.393094
4 1 0.619677 0.424048 0.415588
5 1 0.631609 0.431716 0.44209
6 1 0.647567 0.435366 0.461059
7 1 0.653688 0.437558 0.486448
8 1 0.657708 0.445561 0.510222
9 1 0.67105 0.450078 0.527396
10 1 0.674595 0.452617 0.549602
ITEM: TIMESTEP
23000
ITEM: NUMBER OF ATOMS
10
ITEM: BOX BOUNDS pp pp pp
-2.0000000000000000e+01 2.0000000000000000e+01
-2.0000000000000000e+01 2.0000000000000000e+01
-2.0000000000000000e+01 2.0000000000000000e+01
ITEM: ATOMS id type xs ys zs
1 1 0.59342 0.410985 0.347576
2 1 0.599049 0.415443 0.370439
3 1 0.610459 0.420196 0.393583
4 1 0.620137 0.42424 0.416567
5 1 0.631727 0.431953 0.442527
6 1 0.647694 0.43529 0.46098
7 1 0.653288 0.437166 0.485782
8 1 0.656798 0.445594 0.510277
9 1 0.670844 0.450113 0.526238
10 1 0.674562 0.452275 0.548571
ITEM: TIMESTEP
24000
ITEM: NUMBER OF ATOMS
10
ITEM: BOX BOUNDS pp pp pp
-2.0000000000000000e+01 2.0000000000000000e+01
-2.0000000000000000e+01 2.0000000000000000e+01
-2.0000000000000000e+01 2.0000000000000000e+01
ITEM: ATOMS id type xs ys zs
1 1 0.593533 0.411084 0.348146
2 1 0.599292 0.415569 0.370924
3 1 0.610972 0.420294 0.394046
4 1 0.620634 0.424462 0.417627
5 1 0.631806 0.432155 0.442853
6 1 0.647816 0.435214 0.460945
7 1 0.652886 0.436798 0.485132
8 1 0.655636 0.445521 0.509976
9 1 0.670851 0.450209 0.5252
10 1 0.674555 0.451948 0.547692
ITEM: TIMESTEP
25000
ITEM: NUMBER OF ATOMS
10
ITEM: BOX BOUNDS pp pp pp
-2.0000000000000000e+01 2.0000000000000000e+01
-2.0000000000000000e+01 2.0000000000000000e+01
-2.0000000000000000e+01 2.0000000000000000e+01
ITEM: ATOMS id type xs ys zs
1 1 0.593642 0.411179 0.348702
2 1 0.59958 0.415715 0.371507
3 1 0.611472 0.420388 0.394499
4 1 0.621156 0.424709 0.418736
5 1 0.631839 0.432321 0.443066
6 1 0.647934 0.435139 0.460935
7 1 0.652485 0.43646 0.484538
8 1 0.654261 0.445352 0.509376
9 1 0.671041 0.450359 0.524234
10 1 0.674569 0.451632 0.546947
ITEM: TIMESTEP
26000
ITEM: NUMBER OF ATOMS
10
ITEM: BOX BOUNDS pp pp pp
-2.0000000000000000e+01 2.0000000000000000e+01
-2.0000000000000000e+01 2.0000000000000000e+01
-2.0000000000000000e+01 2.0000000000000000e+01
ITEM: ATOMS id type xs ys zs
1 1 0.593748 0.411274 0.349249
2 1 0.599913 0.41588 0.372182
3 1 0.611965 0.420482 0.39496
4 1 0.62169 0.424974 0.419864
5 1 0.63183 0.432454 0.443176
6 1 0.648048 0.435063 0.460916
7 1 0.652092 0.436155 0.48404
8 1 0.652788 0.445123 0.508601
9 1 0.671304 0.450529 0.523242
10 1 0.674601 0.451322 0.546311
ITEM: TIMESTEP
27000
ITEM: NUMBER OF ATOMS
10
ITEM: BOX BOUNDS pp pp pp
-2.0000000000000000e+01 2.0000000000000000e+01
-2.0000000000000000e+01 2.0000000000000000e+01
-2.0000000000000000e+01 2.0000000000000000e+01
ITEM: ATOMS id type xs ys zs
1 1 0.593856 0.411369 0.349801
2 1 0.600287 0.41606 0.372932
3 1 0.612458 0.420578 0.395446
4 1 0.62222 0.425249 0.420975
5 1 0.631785 0.432559 0.443201
6 1 0.648149 0.434984 0.460841
7 1 0.65171 0.435883 0.483681
8 1 0.651315 0.444863 0.507741
9 1 0.671556 0.450697 0.522176
10 1 0.674643 0.451014 0.545749
ITEM: TIMESTEP
28000
ITEM: NUMBER OF ATOMS
10
ITEM: BOX BOUNDS pp pp pp
-2.0000000000000000e+01 2.0000000000000000e+01
-2.0000000000000000e+01 2.0000000000000000e+01
-2.0000000000000000e+01 2.0000000000000000e+01
ITEM: ATOMS id type xs ys zs
1 1 0.59397 0.411468 0.350374
2 1 0.600696 0.41625 0.373736
3 1 0.612954 0.420681 0.395973
4 1 0.622729 0.425519 0.422022
5 1 0.63172 0.432647 0.443176
6 1 0.648234 0.434901 0.460669
7 1 0.651342 0.435642 0.483486
8 1 0.649897 0.444592 0.506848
9 1 0.671748 0.450848 0.521043
10 1 0.674689 0.450707 0.545214
ITEM: TIMESTEP
29000
ITEM: NUMBER OF ATOMS
10
ITEM: BOX BOUNDS pp pp pp
-2.0000000000000000e+01 2.0000000000000000e+01
-2.0000000000000000e+01 2.0000000000000000e+01
-2.0000000000000000e+01 2.0000000000000000e+01
ITEM: ATOMS id type xs ys zs
1 1 0.594094 0.411575 0.350984
2 1 0.601132 0.416447 0.374572
3 1 0.613458 0.420793 0.396555
4 1 0.623189 0.425763 0.422937
5 1 0.631659 0.432738 0.44316
6 1 0.648302 0.434814 0.46039
7 1 0.650986 0.435423 0.483445
8 1 0.648569 0.444328 0.505963
9 1 0.671856 0.450974 0.519869
10 1 0.674733 0.4504 0.544665
ITEM: TIMESTEP
30000
ITEM: NUMBER OF ATOMS
10
ITEM: BOX BOUNDS pp pp pp
-2.0000000000000000e+01 2.0000000000000000e+01
-2.0000000000000000e+01 2.0000000000000000e+01
-2.0000000000000000e+01 2.0000000000000000e+01
ITEM: ATOMS id type xs ys zs
1 1 0.594234 0.411693 0.351646
2 1 0.601588 0.416645 0.375419
3 1 0.613975 0.420917 0.397203
4 1 0.623558 0.425948 0.423622
5 1 0.631637 0.432864 0.443241
6 1 0.648366 0.434725 0.460032
7 1 0.650638 0.43521 0.483501
8 1 0.64735 0.44409 0.505131
9 1 0.671861 0.451068 0.518678
10 1 0.674772 0.450094 0.544068
ITEM: TIMESTEP
31000
ITEM: NUMBER OF ATOMS
10
ITEM: BOX BOUNDS pp pp pp
-2.0000000000000000e+01 2.0000000000000000e+01
-2.0000000000000000e+01 2.0000000000000000e+01
-2.0000000000000000e+01 2.0000000000000000e+01
ITEM: ATOMS id type xs ys zs
1 1 0.594393 0.411823 0.352369
2 1 0.602058 0.416843 0.376264
3 1 0.614506 0.421053 0.397921
4 1 0.623799 0.426038 0.423978
5 1 0.631675 0.433058 0.443501
6 1 0.648446 0.434638 0.459649
7 1 0.650302 0.434982 0.483562
8 1 0.646247 0.443903 0.504407
9 1 0.671752 0.451124 0.517492
10 1 0.674802 0.449791 0.543398
ITEM: TIMESTEP
32000
ITEM: NUMBER OF ATOMS
10
ITEM: BOX BOUNDS pp pp pp
-2.0000000000000000e+01 2.0000000000000000e+01
-2.0000000000000000e+01 2.0000000000000000e+01
-2.0000000000000000e+01 2.0000000000000000e+01
ITEM: ATOMS id type xs ys zs
1 1 0.594574 0.411968 0.35316
2 1 0.602538 0.417036 0.377095
3 1 0.615048 0.421203 0.398707
4 1 0.623905 0.426024 0.423988
5 1 0.63175 0.433327 0.443933
6 1 0.648579 0.434556 0.459306
7 1 0.649986 0.434712 0.483537
8 1 0.645259 0.443797 0.50385
9 1 0.671519 0.451138 0.516326
10 1 0.674822 0.449493 0.54264
ITEM: TIMESTEP
33000
ITEM: NUMBER OF ATOMS
10
ITEM: BOX BOUNDS pp pp pp
-2.0000000000000000e+01 2.0000000000000000e+01
-2.0000000000000000e+01 2.0000000000000000e+01
-2.0000000000000000e+01 2.0000000000000000e+01
ITEM: ATOMS id type xs ys zs
1 1 0.594779 0.412128 0.354025
2 1 0.603026 0.417225 0.377907
3 1 0.615596 0.421362 0.399545
4 1 0.623915 0.425935 0.42374
5 1 0.63178 0.433644 0.444421
6 1 0.648816 0.434481 0.459066
7 1 0.6497 0.434382 0.48337
8 1 0.644384 0.443791 0.503493
9 1 0.671155 0.451105 0.515192
10 1 0.674829 0.449201 0.541781
ITEM: TIMESTEP
34000
ITEM: NUMBER OF ATOMS
10
ITEM: BOX BOUNDS pp pp pp
-2.0000000000000000e+01 2.0000000000000000e+01
-2.0000000000000000e+01 2.0000000000000000e+01
-2.0000000000000000e+01 2.0000000000000000e+01
ITEM: ATOMS id type xs ys zs
1 1 0.59501 0.412304 0.354963
2 1 0.60352 0.417408 0.378702
3 1 0.616139 0.421526 0.400406
4 1 0.623875 0.42581 0.423357
5 1 0.631683 0.433975 0.444839
6 1 0.649203 0.434413 0.458966
7 1 0.649446 0.433997 0.483072
8 1 0.643625 0.44388 0.503321
9 1 0.670658 0.451025 0.514102
10 1 0.674821 0.448917 0.540814
ITEM: TIMESTEP
35000
ITEM: NUMBER OF ATOMS
10
ITEM: BOX BOUNDS pp pp pp
-2.0000000000000000e+01 2.0000000000000000e+01
-2.0000000000000000e+01 2.0000000000000000e+01
-2.0000000000000000e+01 2.0000000000000000e+01
ITEM: ATOMS id type xs ys zs
1 1 0.595266 0.412496 0.355973
2 1 0.604022 0.417588 0.379483
3 1 0.616656 0.421683 0.401231
4 1 0.62383 0.425682 0.422956
5 1 0.631436 0.4343 0.445131
6 1 0.649737 0.434349 0.458983
7 1 0.649211 0.433578 0.482707
8 1 0.642994 0.444042 0.503277
9 1 0.670031 0.450896 0.513065
10 1 0.674795 0.448641 0.539734
ITEM: TIMESTEP
36000
ITEM: NUMBER OF ATOMS
10
ITEM: BOX BOUNDS pp pp pp
-2.0000000000000000e+01 2.0000000000000000e+01
-2.0000000000000000e+01 2.0000000000000000e+01
-2.0000000000000000e+01 2.0000000000000000e+01
ITEM: ATOMS id type xs ys zs
1 1 0.595548 0.412702 0.357052
2 1 0.604534 0.417763 0.380256
3 1 0.61711 0.421813 0.401911
4 1 0.623827 0.425587 0.422684
5 1 0.631078 0.434608 0.445306
6 1 0.650369 0.434287 0.459042
7 1 0.648979 0.43315 0.482357
8 1 0.642501 0.444248 0.503301
9 1 0.669282 0.450722 0.51209
10 1 0.67475 0.448375 0.538542
ITEM: TIMESTEP
37000
ITEM: NUMBER OF ATOMS
10
ITEM: BOX BOUNDS pp pp pp
-2.0000000000000000e+01 2.0000000000000000e+01
-2.0000000000000000e+01 2.0000000000000000e+01
-2.0000000000000000e+01 2.0000000000000000e+01
ITEM: ATOMS id type xs ys zs
1 1 0.595854 0.412922 0.358191
2 1 0.605054 0.417936 0.381023
3 1 0.617451 0.421887 0.402286
4 1 0.623925 0.425561 0.422722
5 1 0.630671 0.434892 0.445401
6 1 0.651037 0.434227 0.459058
7 1 0.648737 0.432731 0.482096
8 1 0.64215 0.444474 0.503346
9 1 0.668421 0.450505 0.511181
10 1 0.674681 0.448119 0.537238
ITEM: TIMESTEP
38000
ITEM: NUMBER OF ATOMS
10
ITEM: BOX BOUNDS pp pp pp
-2.0000000000000000e+01 2.0000000000000000e+01
-2.0000000000000000e+01 2.0000000000000000e+01
-2.0000000000000000e+01 2.0000000000000000e+01
ITEM: ATOMS id type xs ys zs
1 1 0.596179 0.413152 0.35938
2 1 0.605576 0.418105 0.381777
3 1 0.617662 0.421892 0.40228
4 1 0.624148 0.425621 0.423161
5 1 0.630266 0.435152 0.445449
6 1 0.651692 0.434174 0.458976
7 1 0.648471 0.432333 0.481967
8 1 0.641936 0.444702 0.50338
9 1 0.667463 0.45025 0.510342
10 1 0.674587 0.447873 0.535828
ITEM: TIMESTEP
39000
ITEM: NUMBER OF ATOMS
10
ITEM: BOX BOUNDS pp pp pp
-2.0000000000000000e+01 2.0000000000000000e+01
-2.0000000000000000e+01 2.0000000000000000e+01
-2.0000000000000000e+01 2.0000000000000000e+01
ITEM: ATOMS id type xs ys zs
1 1 0.59652 0.413391 0.360606
2 1 0.60608 0.418264 0.382491
3 1 0.617798 0.421854 0.402032
4 1 0.62446 0.425744 0.42389
5 1 0.629903 0.43539 0.445488
6 1 0.652303 0.43413 0.458785
7 1 0.648176 0.431964 0.481974
8 1 0.641847 0.444919 0.503382
9 1 0.666426 0.449964 0.509571
10 1 0.674465 0.447636 0.534321
ITEM: TIMESTEP
40000
ITEM: NUMBER OF ATOMS
10
ITEM: BOX BOUNDS pp pp pp
-2.0000000000000000e+01 2.0000000000000000e+01
-2.0000000000000000e+01 2.0000000000000000e+01
-2.0000000000000000e+01 2.0000000000000000e+01
ITEM: ATOMS id type xs ys zs
1 1 0.596866 0.413632 0.361845
2 1 0.606521 0.418404 0.383096
3 1 0.617964 0.421817 0.401786
4 1 0.624803 0.425886 0.42472
5 1 0.629614 0.435621 0.445565
6 1 0.652845 0.434093 0.458511
7 1 0.647856 0.431632 0.482086
8 1 0.641853 0.44511 0.503337
9 1 0.665341 0.449653 0.508867
10 1 0.674316 0.447407 0.532728
ITEM: TIMESTEP
41000
ITEM: NUMBER OF ATOMS
10
ITEM: BOX BOUNDS pp pp pp
-2.0000000000000000e+01 2.0000000000000000e+01
-2.0000000000000000e+01 2.0000000000000000e+01
-2.0000000000000000e+01 2.0000000000000000e+01
ITEM: ATOMS id type xs ys zs
1 1 0.597202 0.413869 0.36306
2 1 0.606837 0.418508 0.383504
3 1 0.618267 0.421822 0.401767
4 1 0.625133 0.426005 0.425496
5 1 0.629426 0.435869 0.44574
6 1 0.653296 0.434061 0.458193
7 1 0.647517 0.431344 0.48226
8 1 0.641901 0.445262 0.503229
9 1 0.664259 0.449332 0.508225
10 1 0.674141 0.447184 0.531067
ITEM: TIMESTEP
42000
ITEM: NUMBER OF ATOMS
10
ITEM: BOX BOUNDS pp pp pp
-2.0000000000000000e+01 2.0000000000000000e+01
-2.0000000000000000e+01 2.0000000000000000e+01
-2.0000000000000000e+01 2.0000000000000000e+01
ITEM: ATOMS id type xs ys zs
1 1 0.59749 0.414082 0.364177
2 1 0.607015 0.418581 0.383714
3 1 0.618769 0.421888 0.402092
4 1 0.625426 0.426062 0.426115
5 1 0.629359 0.436162 0.446075
6 1 0.653638 0.434032 0.457867
7 1 0.647172 0.431104 0.482455
8 1 0.641883 0.445357 0.503038
9 1 0.66328 0.449021 0.507646
10 1 0.673948 0.446965 0.529362
ITEM: TIMESTEP
43000
ITEM: NUMBER OF ATOMS
10
ITEM: BOX BOUNDS pp pp pp
-2.0000000000000000e+01 2.0000000000000000e+01
-2.0000000000000000e+01 2.0000000000000000e+01
-2.0000000000000000e+01 2.0000000000000000e+01
ITEM: ATOMS id type xs ys zs
1 1 0.597664 0.414242 0.365058
2 1 0.607152 0.418665 0.383916
3 1 0.619442 0.422009 0.402716
4 1 0.625677 0.426041 0.426542
5 1 0.62942 0.436515 0.446594
6 1 0.65386 0.434004 0.457563
7 1 0.64683 0.430913 0.482639
8 1 0.641626 0.445367 0.502733
9 1 0.662557 0.448753 0.507129
10 1 0.673751 0.446747 0.527649
ITEM: TIMESTEP
44000
ITEM: NUMBER OF ATOMS
10
ITEM: BOX BOUNDS pp pp pp
-2.0000000000000000e+01 2.0000000000000000e+01
-2.0000000000000000e+01 2.0000000000000000e+01
-2.0000000000000000e+01 2.0000000000000000e+01
ITEM: ATOMS id type xs ys zs
1 1 0.59765 0.414313 0.365566
2 1 0.607388 0.418812 0.384355
3 1 0.620215 0.422161 0.403523
4 1 0.625896 0.425956 0.426818
5 1 0.6296 0.436914 0.447265
6 1 0.653958 0.433974 0.457302
7 1 0.646499 0.430769 0.482784
8 1 0.640999 0.44528 0.502298
9 1 0.662187 0.448552 0.506638
10 1 0.673585 0.446524 0.525992
ITEM: TIMESTEP
45000
ITEM: NUMBER OF ATOMS
10
ITEM: BOX BOUNDS pp pp pp
-2.0000000000000000e+01 2.0000000000000000e+01
-2.0000000000000000e+01 2.0000000000000000e+01
-2.0000000000000000e+01 2.0000000000000000e+01
ITEM: ATOMS id type xs ys zs
1 1 0.597453 0.414301 0.365721
2 1 0.607763 0.419032 0.385081
3 1 0.621035 0.422326 0.404402
4 1 0.626105 0.425844 0.427037
5 1 0.629881 0.437327 0.448023
6 1 0.653935 0.433943 0.457104
7 1 0.646188 0.430664 0.482866
8 1 0.640055 0.445115 0.501759
9 1 0.662047 0.44842 0.506048
10 1 0.673517 0.446283 0.524499
ITEM: TIMESTEP
46000
ITEM: NUMBER OF ATOMS
10
ITEM: BOX BOUNDS pp pp pp
-2.0000000000000000e+01 2.0000000000000000e+01
-2.0000000000000000e+01 2.0000000000000000e+01
-2.0000000000000000e+01 2.0000000000000000e+01
ITEM: ATOMS id type xs ys zs
1 1 0.597157 0.414243 0.36569
2 1 0.608215 0.419292 0.385961
3 1 0.621864 0.422487 0.405255
4 1 0.626327 0.425744 0.42732
5 1 0.63024 0.437727 0.448806
6 1 0.653801 0.43391 0.456985
7 1 0.645903 0.430591 0.482861
8 1 0.638946 0.444907 0.501165
9 1 0.661894 0.448348 0.505197
10 1 0.673632 0.446007 0.523302
ITEM: TIMESTEP
47000
ITEM: NUMBER OF ATOMS
10
ITEM: BOX BOUNDS pp pp pp
-2.0000000000000000e+01 2.0000000000000000e+01
-2.0000000000000000e+01 2.0000000000000000e+01
-2.0000000000000000e+01 2.0000000000000000e+01
ITEM: ATOMS id type xs ys zs
1 1 0.596839 0.414175 0.365618
2 1 0.608675 0.419558 0.386864
3 1 0.622676 0.42263 0.405978
4 1 0.626585 0.425686 0.427788
5 1 0.630646 0.438097 0.44957
6 1 0.653579 0.433871 0.456957
7 1 0.645648 0.430537 0.482753
8 1 0.637787 0.444686 0.500553
9 1 0.661588 0.448325 0.504037
10 1 0.673954 0.445691 0.522423
ITEM: TIMESTEP
48000
ITEM: NUMBER OF ATOMS
10
ITEM: BOX BOUNDS pp pp pp
-2.0000000000000000e+01 2.0000000000000000e+01
-2.0000000000000000e+01 2.0000000000000000e+01
-2.0000000000000000e+01 2.0000000000000000e+01
ITEM: ATOMS id type xs ys zs
1 1 0.596542 0.414116 0.365582
2 1 0.609105 0.419814 0.387715
3 1 0.623462 0.422745 0.406505
4 1 0.626892 0.425691 0.428525
5 1 0.631062 0.438432 0.450284
6 1 0.653303 0.433821 0.457032
7 1 0.645428 0.430494 0.482532
8 1 0.636639 0.444468 0.499946
9 1 0.66114 0.448328 0.50268
10 1 0.674407 0.445347 0.52174
ITEM: TIMESTEP
49000
ITEM: NUMBER OF ATOMS
10
ITEM: BOX BOUNDS pp pp pp
-2.0000000000000000e+01 2.0000000000000000e+01
-2.0000000000000000e+01 2.0000000000000000e+01
-2.0000000000000000e+01 2.0000000000000000e+01
ITEM: ATOMS id type xs ys zs
1 1 0.596287 0.414076 0.365621
2 1 0.609478 0.420047 0.388473
3 1 0.624231 0.422838 0.406858
4 1 0.627241 0.425757 0.429514
5 1 0.631431 0.438738 0.450927
6 1 0.65303 0.43375 0.457221
7 1 0.645244 0.430461 0.482202
8 1 0.635533 0.444264 0.499351
9 1 0.660605 0.448332 0.50126
10 1 0.674899 0.444994 0.521114
ITEM: TIMESTEP
50000
ITEM: NUMBER OF ATOMS
10
ITEM: BOX BOUNDS pp pp pp
-2.0000000000000000e+01 2.0000000000000000e+01
-2.0000000000000000e+01 2.0000000000000000e+01
-2.0000000000000000e+01 2.0000000000000000e+01
ITEM: ATOMS id type xs ys zs
1 1 0.596086 0.414061 0.365754
2 1 0.609777 0.420251 0.389113
3 1 0.625005 0.42292 0.407127
4 1 0.627615 0.42587 0.430668
5 1 0.631688 0.439034 0.451484
6 1 0.65283 0.433644 0.45753
7 1 0.64509 0.430436 0.481777
8 1 0.634494 0.444072 0.498764
9 1 0.660021 0.448321 0.499861
10 1 0.675373 0.444645 0.520463
ITEM: TIMESTEP
51000
ITEM: NUMBER OF ATOMS
10
ITEM: BOX BOUNDS pp pp pp
-2.0000000000000000e+01 2.0000000000000000e+01
-2.0000000000000000e+01 2.0000000000000000e+01
-2.0000000000000000e+01 2.0000000000000000e+01
ITEM: ATOMS id type xs ys zs
1 1 0.595948 0.414074 0.365994
2 1 0.609994 0.420424 0.389624
3 1 0.625796 0.423003 0.407396
4 1 0.627999 0.426012 0.431883
5 1 0.63178 0.439345 0.451958
6 1 0.652764 0.433488 0.457955
7 1 0.644955 0.430425 0.481287
8 1 0.633541 0.443891 0.498175
9 1 0.659404 0.448284 0.498524
10 1 0.675798 0.444309 0.519745
ITEM: TIMESTEP
52000
ITEM: NUMBER OF ATOMS
10
ITEM: BOX BOUNDS pp pp pp
-2.0000000000000000e+01 2.0000000000000000e+01
-2.0000000000000000e+01 2.0000000000000000e+01
-2.0000000000000000e+01 2.0000000000000000e+01
ITEM: ATOMS id type xs ys zs
1 1 0.595877 0.414118 0.366347
2 1 0.610135 0.420566 0.390011
3 1 0.626599 0.423091 0.407713
4 1 0.628384 0.426158 0.433075
5 1 0.631708 0.439692 0.45237
6 1 0.652848 0.433282 0.458463
7 1 0.644823 0.43043 0.480774
8 1 0.632688 0.443714 0.497573
9 1 0.658764 0.448215 0.497275
10 1 0.676153 0.443989 0.518939
ITEM: TIMESTEP
53000
ITEM: NUMBER OF ATOMS
10
ITEM: BOX BOUNDS pp pp pp
-2.0000000000000000e+01 2.0000000000000000e+01
-2.0000000000000000e+01 2.0000000000000000e+01
-2.0000000000000000e+01 2.0000000000000000e+01
ITEM: ATOMS id type xs ys zs
1 1 0.595875 0.414193 0.366813
2 1 0.610216 0.420677 0.390293
3 1 0.627398 0.423188 0.408093
4 1 0.628759 0.42628 0.434174
5 1 0.631522 0.440089 0.452771
6 1 0.653056 0.433044 0.458984
7 1 0.644667 0.430449 0.480301
8 1 0.631949 0.443537 0.49695
9 1 0.658108 0.44811 0.496129
10 1 0.676427 0.443689 0.518031
ITEM: TIMESTEP
54000
ITEM: NUMBER OF ATOMS
10
ITEM: BOX BOUNDS pp pp pp
-2.0000000000000000e+01 2.0000000000000000e+01
-2.0000000000000000e+01 2.0000000000000000e+01
-2.0000000000000000e+01 2.0000000000000000e+01
ITEM: ATOMS id type xs ys zs
1 1 0.595941 0.414298 0.367392
2 1 0.610259 0.420762 0.390494