LAMMPS data file via write_data, version 10 Dec 2025, timestep = 2000, units = lj

400 atoms
2 atom types
400 ellipsoids

53.93442029289062 87.48693594441893 xlo xhi
53.93442029289062 87.48693594441893 ylo yhi
-3.5355339059327378 3.5355339059327378 zlo zhi

Pair Coeffs # gayberne

1 3 1 1 1 1 1 1 1
2 1 1 1 1 0.2 1 1 0.2

Atoms # ellipsoid/kk

1 1 1 1.909859317102744 55.93723696499376 57.66751495220806 0 0 0 0
21 1 1 1.909859317102744 55.3314603388668 58.48359325931891 0 0 0 0
22 1 1 1.909859317102744 57.128439712282095 57.95337210740511 0 0 0 0
5 1 1 1.909859317102744 62.061496260910204 55.10373500467767 0 0 0 0
23 1 1 1.909859317102744 58.66170139728925 55.939556806362596 0 0 0 0
24 2 1 0.954929658551372 60.504186435348366 55.745553401553124 0 0 0 0
25 1 1 1.909859317102744 65.35129203986847 55.544980348003925 0 0 0 0
26 1 1 1.909859317102744 62.757931716515664 57.324393616287864 0 0 0 0
27 1 1 1.909859317102744 63.46046893210451 55.36989285842429 0 0 0 0
44 1 1 1.909859317102744 62.542178784161216 56.1472223933568 0 0 0 0
28 1 1 1.909859317102744 64.92100314133421 54.35067267543143 0 0 0 0
48 1 1 1.909859317102744 64.10080018406023 56.27512730352882 0 0 0 0
8 1 1 1.909859317102744 65.7628112584342 87.05594514061376 0 0 -1 0
29 1 1 1.909859317102744 69.03601165092213 54.40163697638214 0 0 0 0
30 1 1 1.909859317102744 68.78787668872855 55.468602131569455 0 0 0 0
10 1 1 1.909859317102744 69.91651444070527 86.12278772946537 0 0 -1 0
11 1 1 1.909859317102744 70.02830733564818 87.35165559895032 0 0 -1 0
51 1 1 1.909859317102744 70.18715178679403 56.210140716723956 0 0 0 0
31 1 1 1.909859317102744 70.13874799399358 54.986134120494526 0 0 0 0
32 1 1 1.909859317102744 71.33650165794239 55.349041803532224 0 0 0 0
33 1 1 1.909859317102744 74.85164742003579 54.343831234806466 0 0 0 0
54 2 1 0.954929658551372 75.08495309468059 56.09643138781578 0 0 0 0
14 1 1 1.909859317102744 76.0599001255571 85.77949326121268 0 0 -1 0
34 1 1 1.909859317102744 76.30824457745341 86.93558829458124 0 0 -1 0
35 1 1 1.909859317102744 76.7459672628151 56.30458347942567 0 0 0 0
55 1 1 1.909859317102744 75.86755740994325 54.59233652895649 0 0 0 0
16 1 1 1.909859317102744 79.56094433186053 87.43406208666408 0 0 -1 0
17 1 1 1.909859317102744 79.65258073842402 86.35582222780369 0 0 -1 0
36 2 1 0.954929658551372 81.66011215784326 87.21999344069192 0 0 -1 0
18 1 1 1.909859317102744 84.20189923282976 54.17756150985008 0 0 0 0
37 1 1 1.909859317102744 82.7278896940866 87.42587185726323 0 0 -1 0
38 1 1 1.909859317102744 80.55287001640622 87.33353801832399 0 0 -1 0
39 1 1 1.909859317102744 86.412779757958 86.721381390543 0 0 -1 0
59 1 1 1.909859317102744 85.2392549301656 54.574275426537966 0 0 0 0
20 2 1 0.954929658551372 86.94818256063914 54.82094896520859 0 0 0 0
40 1 1 1.909859317102744 54.92138599223372 57.292359948861105 0 1 0 0
42 1 1 1.909859317102744 54.76416487133359 59.61122067747483 0 0 0 0
61 1 1 1.909859317102744 56.30057778868282 58.8223208001621 0 0 0 0
62 1 1 1.909859317102744 56.85938321275797 60.29490419065493 0 0 0 0
43 1 1 1.909859317102744 58.6970186486631 57.018920067643386 0 0 0 0
63 1 1 1.909859317102744 59.6820032701252 58.15283253405005 0 0 0 0
64 1 1 1.909859317102744 59.07643421910652 60.932718551071005 0 0 0 0
83 1 1 1.909859317102744 58.28152875643265 60.07874568060947 0 0 0 0
45 1 1 1.909859317102744 60.93346789986611 58.183053062489726 0 0 0 0
46 1 1 1.909859317102744 61.81891870097686 56.7861476461205 0 0 0 0
65 1 1 1.909859317102744 62.281047212032256 60.557181757244905 0 0 0 0
47 1 1 1.909859317102744 62.34700816794325 58.49238407042712 0 0 0 0
67 2 1 0.954929658551372 63.84356256703812 58.397738871156896 0 0 0 0
68 1 1 1.909859317102744 64.18685717143445 61.208837572102986 0 0 0 0
87 1 1 1.909859317102744 63.271258818852736 60.222276351722755 0 0 0 0
49 2 1 0.954929658551372 65.48186608278736 59.13058755065489 0 0 0 0
50 2 1 0.954929658551372 66.54100999274783 56.322980721460304 0 0 0 0
69 1 1 1.909859317102744 67.27486693076436 61.69728390538987 0 0 0 0
52 1 1 1.909859317102744 69.25022351306171 58.20817767071589 0 0 0 0
71 1 1 1.909859317102744 67.97035561705691 59.712170882023614 0 0 0 0
90 1 1 1.909859317102744 68.2573722478369 61.017318721360546 0 0 0 0
91 2 1 0.954929658551372 72.54963970900593 58.83644268758974 0 0 0 0
53 1 1 1.909859317102744 71.43075723273196 56.593792934939124 0 0 0 0
73 1 1 1.909859317102744 73.48865188170856 62.06831175643533 0 0 0 0
74 2 1 0.954929658551372 77.09607340046941 57.722981682337895 0 0 0 0
76 1 1 1.909859317102744 78.81174876836185 59.03250882314048 0 0 0 0
96 1 1 1.909859317102744 77.90037034352846 59.77776162602073 0 0 0 0
56 1 1 1.909859317102744 78.86424966663388 62.36506557212264 0 0 0 0
57 1 1 1.909859317102744 81.02752003416977 56.84525495717239 0 0 0 0
75 1 1 1.909859317102744 78.26532142490501 60.89256561345349 0 0 0 0
77 1 1 1.909859317102744 81.40269379316823 57.8132664330968 0 0 0 0
97 1 1 1.909859317102744 82.53827360109506 58.024651928187716 0 0 0 0
58 1 1 1.909859317102744 82.22462608210355 55.74408430870676 0 0 0 0
78 1 1 1.909859317102744 83.18003782701037 57.2110364741014 0 0 0 0
79 2 1 0.954929658551372 84.25147222411891 55.61678101490944 0 0 0 0
41 1 1 1.909859317102744 54.00081827656541 58.89215913938946 0 0 0 0
60 1 1 1.909859317102744 85.44374962206429 57.237143058412485 0 0 0 0
80 1 1 1.909859317102744 85.74955009288674 58.43305212375715 0 0 0 0
81 1 1 1.909859317102744 54.501329605664786 60.90803616913935 0 0 0 0
82 1 1 1.909859317102744 55.8074335982124 60.16866025988389 0 0 0 0
101 1 1 1.909859317102744 53.93450787436535 61.784791213045914 0 0 0 0
102 1 1 1.909859317102744 57.926946711583334 61.044472778630585 0 0 0 0
84 1 1 1.909859317102744 60.34514709024738 59.01657512745116 0 0 0 0
103 1 1 1.909859317102744 54.90767078618436 62.258664094417746 0 0 0 0
104 1 1 1.909859317102744 58.99732101396088 62.20918849705714 0 0 0 0
66 1 1 1.909859317102744 61.41096983109693 61.1368366906879 0 0 0 0
85 1 1 1.909859317102744 60.308877563137436 62.348894774348906 0 0 0 0
86 1 1 1.909859317102744 61.55999306651576 66.02587254698294 0 0 0 0
105 1 1 1.909859317102744 60.37368601393071 60.73886447258291 0 0 0 0
106 1 1 1.909859317102744 59.69057876943402 64.86121112219739 0 0 0 0
88 2 1 0.954929658551372 67.29065841218898 64.42464370104396 0 0 0 0
108 1 1 1.909859317102744 63.57427002052108 63.913483410209956 0 0 0 0
70 1 1 1.909859317102744 68.47934944619377 62.02948894091377 0 0 0 0
89 1 1 1.909859317102744 65.94355037023837 61.01229689505559 0 0 0 0
109 1 1 1.909859317102744 69.312232798403 62.79812021641441 0 0 0 0
110 1 1 1.909859317102744 68.05883760549224 63.19003740162902 0 0 0 0
92 1 1 1.909859317102744 70.3396664511811 62.51376225963163 0 0 0 0
111 1 1 1.909859317102744 69.50665620952593 61.51894624337326 0 0 0 0
72 1 1 1.909859317102744 72.786497164991 61.17805470817025 0 0 0 0
93 1 1 1.909859317102744 75.3808728974621 60.65550743122365 0 0 0 0
94 1 1 1.909859317102744 73.42031420554378 64.1039090516402 0 0 0 0
112 1 1 1.909859317102744 71.06684763674505 61.5893929454699 0 0 0 0
113 1 1 1.909859317102744 72.6093937372004 65.04105527920194 0 0 0 0
95 1 1 1.909859317102744 76.36673164391432 61.4943643456218 0 0 0 0
114 1 1 1.909859317102744 75.14189652197373 61.79404359527818 0 0 0 0
116 1 1 1.909859317102744 77.5269538296883 61.87368081435766 0 0 0 0
117 2 1 0.954929658551372 81.98998901186852 63.081128104625506 0 0 0 0
98 1 1 1.909859317102744 83.05343223439691 58.976834653355105 0 0 0 0
99 1 1 1.909859317102744 83.87806059235982 58.194120009476684 0 0 0 0
118 2 1 0.954929658551372 80.59041992217945 59.385330800734415 0 0 0 0
100 1 1 1.909859317102744 86.28124190286886 61.0630808543587 0 0 0 0
119 2 1 0.954929658551372 84.92170121617175 63.09610631052221 0 0 0 0
120 1 1 1.909859317102744 86.50627148105174 59.31988076277035 0 0 0 0
121 1 1 1.909859317102744 57.22778229129431 63.467939175119696 0 0 0 0
122 1 1 1.909859317102744 54.54424760156676 64.51495795517911 0 0 0 0
123 1 1 1.909859317102744 56.81621277700336 61.32689173302165 0 0 0 0
142 1 1 1.909859317102744 57.996901538283176 66.07440790753553 0 0 0 0
124 1 1 1.909859317102744 58.187469462746705 64.84165923024817 0 0 0 0
145 1 1 1.909859317102744 59.03049344263283 66.33880789990705 0 0 0 0
125 1 1 1.909859317102744 59.50103484394253 63.53748902395277 0 0 0 0
126 2 1 0.954929658551372 60.79137860805037 65.0452672716571 0 0 0 0
107 1 1 1.909859317102744 64.78600544482705 65.5637021580306 0 0 0 0
127 1 1 1.909859317102744 64.83038843161032 63.854476092802805 0 0 0 0
128 1 1 1.909859317102744 67.00263228076241 66.24608237466502 0 0 0 0
146 1 1 1.909859317102744 65.31188135990116 66.77000773161188 0 0 0 0
148 1 1 1.909859317102744 65.5708632855189 64.7149237650159 0 0 0 0
129 1 1 1.909859317102744 68.72187738075635 65.3348235811437 0 0 0 0
130 1 1 1.909859317102744 68.86001492616622 63.76183810479266 0 0 0 0
149 1 1 1.909859317102744 68.99348168729315 67.4293562904978 0 0 0 0
150 1 1 1.909859317102744 68.30654361870357 66.39993741227848 0 0 0 0
131 1 1 1.909859317102744 69.9886999226965 63.6202684816113 0 0 0 0
151 1 1 1.909859317102744 69.75414820185102 65.58717551428329 0 0 0 0
152 1 1 1.909859317102744 70.99570660591951 65.79242857997919 0 0 0 0
132 2 1 0.954929658551372 72.98688479157535 66.3261365143985 0 0 0 0
133 1 1 1.909859317102744 71.08338122721403 63.56197475223605 0 0 0 0
154 1 1 1.909859317102744 74.74102672975943 68.23319613649983 0 0 0 0
115 1 1 1.909859317102744 76.49343196351072 62.58226443280685 0 0 0 0
134 1 1 1.909859317102744 74.05763332308591 65.08136421252134 0 0 0 0
135 1 1 1.909859317102744 75.93725012212539 63.94516713230566 0 0 0 0
153 1 1 1.909859317102744 75.31922945560322 65.01576157620319 0 0 0 0
156 1 1 1.909859317102744 76.44965769213826 64.91599464186307 0 0 0 0
136 1 1 1.909859317102744 77.25659985613159 63.87786339036805 0 0 0 0
137 1 1 1.909859317102744 77.90438858116963 62.90023319133672 0 0 0 0
157 2 1 0.954929658551372 77.65461325672435 66.56934500726337 0 0 0 0
158 1 1 1.909859317102744 81.23573702907991 66.37032888585573 0 0 0 0
138 1 1 1.909859317102744 83.88719124730348 63.820248742557894 0 0 0 0
139 2 1 0.954929658551372 81.9206974302543 67.36722386879592 0 0 0 0
140 1 1 1.909859317102744 83.87954208906663 65.3029919300123 0 0 0 0
141 1 1 1.909859317102744 85.90295851374948 68.11749111419253 0 -1 0 0
159 2 1 0.954929658551372 85.43818407828284 65.77582440116137 0 0 0 0
161 2 1 0.954929658551372 55.77005877416037 68.43496676000916 0 0 0 0
162 1 1 1.909859317102744 56.690221866337566 69.69002135680226 0 0 0 0
182 1 1 1.909859317102744 56.07362443340258 71.13380093582246 0 0 0 0
183 1 1 1.909859317102744 59.06961652392483 69.9819495255144 0 0 0 0
143 1 1 1.909859317102744 58.15622516038703 68.79516510488615 0 0 0 0
144 1 1 1.909859317102744 60.12790597363179 67.56243406276009 0 0 0 0
163 1 1 1.909859317102744 57.74759713678639 62.3145687326064 0 0 0 0
164 1 1 1.909859317102744 61.05884519452417 66.91507451770282 0 0 0 0
184 1 1 1.909859317102744 60.066719388909526 69.45704928555469 0 0 0 0
165 1 1 1.909859317102744 62.04785617479976 67.33608150005168 0 0 0 0
166 1 1 1.909859317102744 64.23344166332416 67.1622214680057 0 0 0 0
185 1 1 1.909859317102744 62.98743645470556 66.88208253294269 0 0 0 0
147 1 1 1.909859317102744 66.39449441941923 67.39016068689348 0 0 0 0
167 1 1 1.909859317102744 65.7526865423209 69.67073429074516 0 0 0 0
168 1 1 1.909859317102744 65.91263729893033 65.9042204147938 0 0 0 0
188 1 1 1.909859317102744 67.54356161971943 67.17140377384597 0 0 0 0
169 1 1 1.909859317102744 70.07767844399422 66.71323389826792 0 0 0 0
189 1 1 1.909859317102744 66.97077308926063 68.44612548181713 0 0 0 0
190 1 1 1.909859317102744 67.9400107246023 68.10575396385069 0 0 0 0
170 1 1 1.909859317102744 71.272115344787 67.13069455228148 0 0 0 0
171 1 1 1.909859317102744 70.08260125061136 67.97353268217654 0 0 0 0
172 1 1 1.909859317102744 71.30685190387237 69.10563652602517 0 0 0 0
173 1 1 1.909859317102744 73.42148066694203 68.52446655494413 0 0 0 0
192 1 1 1.909859317102744 74.36606293076068 69.38872124095357 0 0 0 0
193 1 1 1.909859317102744 73.59778519353098 67.52892445576497 0 0 0 0
194 1 1 1.909859317102744 75.46814193858553 67.41450682277197 0 0 0 0
174 1 1 1.909859317102744 75.55241579212002 69.7517113652275 0 0 0 0
196 1 1 1.909859317102744 76.5644294027762 69.646201066158 0 0 0 0
155 1 1 1.909859317102744 76.16437992744618 68.63128035480942 0 0 0 0
176 1 1 1.909859317102744 79.29033907141078 69.84670105064005 0 0 0 0
177 1 1 1.909859317102744 80.4687145236814 68.75667055046664 0 0 0 0
197 1 1 1.909859317102744 80.23112970825687 70.82387818363253 0 0 0 0
198 1 1 1.909859317102744 80.3344206826915 67.06726543324068 0 0 0 0
160 1 1 1.909859317102744 83.00706483594888 67.6974174499256 0 0 0 0
178 1 1 1.909859317102744 81.4160338601869 70.93508302059483 0 0 0 0
199 1 1 1.909859317102744 82.5666009991814 70.51018927585312 0 0 0 0
179 1 1 1.909859317102744 83.47115883281751 70.05139981713168 0 0 0 0
180 1 1 1.909859317102744 85.10852663018142 68.87065891139777 0 0 0 0
200 1 1 1.909859317102744 85.72399583885512 69.80479350587589 0 0 0 0
181 1 1 1.909859317102744 57.85912595739468 69.89549089893119 0 0 0 0
201 1 1 1.909859317102744 57.916225035782354 72.00666970845029 0 0 0 0
202 1 1 1.909859317102744 58.887593786340354 71.15119575125237 0 0 0 0
203 1 1 1.909859317102744 60.976205610074786 70.31539824329435 0 0 0 0
204 1 1 1.909859317102744 61.03931890403366 68.2851721759971 0 0 0 0
223 1 1 1.909859317102744 59.8622412154222 70.73938089270047 0 0 0 0
186 1 1 1.909859317102744 63.32695761469346 71.30874502857954 0 0 0 0
205 1 1 1.909859317102744 61.523144052534704 71.12209655903376 0 0 0 0
206 1 1 1.909859317102744 61.71831513231394 69.13205424447281 0 0 0 0
226 1 1 1.909859317102744 62.38820562167008 70.35429749377458 0 0 0 0
187 2 1 0.954929658551372 64.40224473762329 68.3179694775352 0 0 0 0
207 1 1 1.909859317102744 65.89248171379644 68.45898734715838 0 0 0 0
208 2 1 0.954929658551372 64.39512419696513 70.52101826981362 0 0 0 0
229 1 1 1.909859317102744 67.07754514122433 71.29088654972128 0 0 0 0
191 1 1 1.909859317102744 72.42649551806916 68.35736239878705 0 0 0 0
210 2 1 0.954929658551372 68.24909294336464 71.12901439393625 0 0 0 0
211 1 1 1.909859317102744 70.47909862416992 72.89824370256508 0 0 0 0
231 1 1 1.909859317102744 69.41539708986564 73.50454986659084 0 0 0 0
212 1 1 1.909859317102744 72.26718127542608 69.53929309345614 0 0 0 0
213 1 1 1.909859317102744 73.39307951341719 69.64347388843379 0 0 0 0
233 1 1 1.909859317102744 70.52102491331327 74.19506075034961 0 0 0 0
175 1 1 1.909859317102744 76.73934475791461 71.90994135779898 0 0 0 0
214 2 1 0.954929658551372 74.1362848041278 71.4700910648368 0 0 0 0
215 1 1 1.909859317102744 76.31570991036098 72.88287042409678 0 0 0 0
195 1 1 1.909859317102744 78.37195513677364 70.63876652954721 0 0 0 0
216 1 1 1.909859317102744 78.75292611221813 71.79031110100644 0 0 0 0
236 1 1 1.909859317102744 77.2440866309336 70.42591116989271 0 0 0 0
237 1 1 1.909859317102744 81.77600225438431 73.16567060563081 0 0 0 0
217 1 1 1.909859317102744 81.15656375246508 72.29055857207128 0 0 0 0
218 1 1 1.909859317102744 82.37911076972881 71.61970540045365 0 0 0 0
219 1 1 1.909859317102744 84.47661191329016 70.52888209928514 0 0 0 0
239 1 1 1.909859317102744 83.49141978859808 71.37510729333029 0 0 0 0
220 2 1 0.954929658551372 87.07036986248639 69.96833268451614 0 0 0 0
240 1 1 1.909859317102744 85.02537048954724 71.81629683011202 0 0 0 0
221 2 1 0.954929658551372 54.23566918396912 71.17877926962838 0 0 0 0
222 1 1 1.909859317102744 54.97477557297496 72.1514639990545 0 0 0 0
242 1 1 1.909859317102744 54.07689409435297 75.36116770452482 0 0 0 0
243 1 1 1.909859317102744 55.513298072117344 73.60228981840874 0 0 0 0
224 1 1 1.909859317102744 59.23861158882627 72.58792288442828 0 0 0 0
225 1 1 1.909859317102744 61.28047628273207 72.15159451720044 0 0 0 0
244 1 1 1.909859317102744 59.96791781668404 73.59921805421307 0 0 0 0
264 1 1 1.909859317102744 61.30452839876732 74.55758489867783 0 0 0 0
265 1 1 1.909859317102744 60.978846701769605 73.20960320133548 0 0 0 0
245 1 1 1.909859317102744 63.85575264737904 73.65050621752746 0 0 0 0
227 1 1 1.909859317102744 63.57675322240263 74.76206932952324 0 0 0 0
228 1 1 1.909859317102744 64.90866965228915 73.04537313135738 0 0 0 0
247 1 1 1.909859317102744 64.65637204507541 74.52384305424766 0 0 0 0
268 1 1 1.909859317102744 65.7896645629828 74.59718499416977 0 0 0 0
209 1 1 1.909859317102744 66.20810301591473 72.52237021041299 0 0 0 0
230 1 1 1.909859317102744 67.26025087665577 72.6632138275944 0 0 0 0
248 1 1 1.909859317102744 66.55068845081831 73.49123409707425 0 0 0 0
249 1 1 1.909859317102744 67.81875545563913 74.65457715756253 0 0 0 0
250 1 1 1.909859317102744 69.24877285897446 74.587825531607 0 0 0 0
251 1 1 1.909859317102744 68.08227461761581 73.48296043412944 0 0 0 0
232 1 1 1.909859317102744 74.57780232487961 73.99080924130149 0 0 0 0
234 1 1 1.909859317102744 71.97522697456351 70.5632158458616 0 0 0 0
252 1 1 1.909859317102744 73.53520223852536 73.38007634606157 0 0 0 0
253 1 1 1.909859317102744 75.06103135005604 74.99042765065037 0 0 0 0
273 1 1 1.909859317102744 73.85598805923024 75.27690747455246 0 0 0 0
254 1 1 1.909859317102744 76.35377507290376 74.95730457893288 0 0 0 0
255 1 1 1.909859317102744 77.10756752332033 73.73964115964488 0 0 0 0
274 1 1 1.909859317102744 75.73398138451898 73.93523681548858 0 0 0 0
235 1 1 1.909859317102744 77.86933246489751 72.1450459696055 0 0 0 0
256 2 1 0.954929658551372 79.7726530566613 72.90454251741022 0 0 0 0
257 1 1 1.909859317102744 82.47999019550247 74.06143244659975 0 0 0 0
238 1 1 1.909859317102744 84.04823608088556 72.45299441425101 0 0 0 0
258 1 1 1.909859317102744 83.00084337834579 76.55278381947286 0 0 0 0
279 1 1 1.909859317102744 83.11969249703712 75.3029594374155 0 0 0 0
241 1 1 1.909859317102744 54.36295021377472 73.81380868534394 0 0 0 0
259 1 1 1.909859317102744 84.95017446398235 73.16392407582441 0 0 0 0
260 1 1 1.909859317102744 84.12016897250673 73.72845702776723 0 0 0 0
262 1 1 1.909859317102744 87.46142996691485 76.565395261124 0 -1 0 0
282 1 1 1.909859317102744 87.00787268464387 78.05688286246591 0 -1 0 0
283 1 1 1.909859317102744 55.06182419303389 76.24194851999134 0 0 0 0
263 1 1 1.909859317102744 55.49921257512465 74.90835291769854 0 0 0 0
284 2 1 0.954929658551372 59.63452352793712 75.8417063490096 0 0 0 0
246 1 1 1.909859317102744 61.604006233216154 75.71029824626109 0 0 0 0
266 1 1 1.909859317102744 64.85385129170756 76.87479169639093 0 0 0 0
285 1 1 1.909859317102744 63.36528287461606 78.63910930345098 0 0 0 0
286 1 1 1.909859317102744 64.3278981864941 78.25444595767794 0 0 0 0
267 1 1 1.909859317102744 63.149024399752946 76.51494768215004 0 0 0 0
287 1 1 1.909859317102744 65.16667012629469 75.54686436869754 0 0 0 0
307 1 1 1.909859317102744 64.16271416145274 75.88819204386337 0 0 0 0
269 1 1 1.909859317102744 66.33713239684276 75.65861989745005 0 0 0 0
270 1 1 1.909859317102744 70.39149348672723 76.90930701328624 0 0 0 0
288 1 1 1.909859317102744 66.10695675019792 76.93318339928265 0 0 0 0
289 1 1 1.909859317102744 67.27799910118276 77.01980113607948 0 0 0 0
271 1 1 1.909859317102744 70.35549284424862 75.89149875764912 0 0 0 0
290 1 1 1.909859317102744 71.54432705770836 76.00345236684731 0 0 0 0
292 1 1 1.909859317102744 72.78397277583187 75.61210225246624 0 0 0 0
310 1 1 1.909859317102744 71.3391161029037 77.62100225041831 0 0 0 0
272 1 1 1.909859317102744 72.73044935010387 74.35676124812393 0 0 0 0
293 1 1 1.909859317102744 74.3348348909135 77.02820059123195 0 0 0 0
312 1 1 1.909859317102744 73.55994891076665 77.93581550763069 0 0 0 0
275 1 1 1.909859317102744 77.83112685514654 74.59009908870992 0 0 0 0
295 2 1 0.954929658551372 76.10908413731985 76.68720183898344 0 0 0 0
276 1 1 1.909859317102744 80.46251469672929 74.68135819228894 0 0 0 0
277 1 1 1.909859317102744 82.15672445914124 75.79062535775262 0 0 0 0
296 2 1 0.954929658551372 75.82631122108602 77.85304545933299 0 0 0 0
278 1 1 1.909859317102744 84.02340740689124 76.95631004764803 0 0 0 0
297 1 1 1.909859317102744 81.60695327886481 74.89805285088907 0 0 0 0
298 1 1 1.909859317102744 82.00996693415688 76.87771144903125 0 0 0 0
317 1 1 1.909859317102744 79.79891644004393 75.57980607018584 0 0 0 0
319 1 1 1.909859317102744 81.57739106940475 78.07803836665096 0 0 0 0
261 1 1 1.909859317102744 86.82111524468763 73.23987298692953 0 -1 0 0
280 1 1 1.909859317102744 85.53521895014114 75.94182062608168 0 0 0 0
281 1 1 1.909859317102744 86.20702572511041 77.14888937348616 0 -1 0 0
299 1 1 1.909859317102744 85.11944271235514 77.23995362048178 0 0 0 0
302 1 1 1.909859317102744 56.20587028478944 76.14458254352672 0 0 0 0
322 1 1 1.909859317102744 55.32451863784541 80.80811965913455 0 0 0 0
303 1 1 1.909859317102744 59.988837262616265 77.06853205247762 0 0 0 0
304 1 1 1.909859317102744 58.877384621895125 80.91327813116601 0 0 0 0
323 1 1 1.909859317102744 57.85013508541984 80.52978954483011 0 0 0 0
324 1 1 1.909859317102744 61.36677571804975 80.64357162047125 0 0 0 0
305 1 1 1.909859317102744 58.43144792064503 79.6018144711965 0 0 0 0
325 1 1 1.909859317102744 61.83165237803389 81.92341483457619 0 0 0 0
326 2 1 0.954929658551372 63.01888828601953 79.68831087217548 0 0 0 0
306 1 1 1.909859317102744 69.0036045944526 79.2565021065471 0 0 0 0
308 1 1 1.909859317102744 64.91333428364806 79.37355105049433 0 0 0 0
327 1 1 1.909859317102744 67.12074798847775 79.10026840835731 0 0 0 0
328 1 1 1.909859317102744 67.13537830687555 81.78975729255748 0 0 0 0
309 2 1 0.954929658551372 66.95217222893638 78.004445214125 0 0 0 0
329 2 1 0.954929658551372 70.77072689337237 78.5589241146573 0 0 0 0
291 1 1 1.909859317102744 72.15084980968015 76.88823641009377 0 0 0 0
311 1 1 1.909859317102744 72.35238311129561 78.11524806308456 0 0 0 0
330 1 1 1.909859317102744 69.53612985707721 84.05328318968826 0 0 0 0
351 1 1 1.909859317102744 69.79608336233494 79.82471894972517 0 0 0 0
313 1 1 1.909859317102744 73.21899109847223 76.69675491446014 0 0 0 0
332 1 1 1.909859317102744 73.74823015307643 80.75267903030483 0 0 0 0
333 1 1 1.909859317102744 73.40519846130822 79.04204864411092 0 0 0 0
352 1 1 1.909859317102744 71.54748747835934 79.88656674428157 0 0 0 0
294 1 1 1.909859317102744 74.45661948576901 79.85537831844191 0 0 0 0
314 1 1 1.909859317102744 74.56081055221449 78.72374890996545 0 0 0 0
315 1 1 1.909859317102744 75.11899181478672 81.35834015763632 0 0 0 0
334 1 1 1.909859317102744 74.75959562610777 82.46730787973598 0 0 0 0
336 1 1 1.909859317102744 76.0161826436852 80.71622680783207 0 0 0 0
316 1 1 1.909859317102744 76.77537100641914 79.15622163707752 0 0 0 0
338 1 1 1.909859317102744 78.83612734505527 76.27120062166796 0 0 0 0
357 1 1 1.909859317102744 77.67629061960426 80.19245624549434 0 0 0 0
318 1 1 1.909859317102744 79.16144857585365 79.39688013571067 0 0 0 0
337 1 1 1.909859317102744 78.85560447541638 80.59756642846007 0 0 0 0
339 2 1 0.954929658551372 83.10799212311382 78.52581011168348 0 0 0 0
300 1 1 1.909859317102744 85.75242606526493 79.8398916156602 0 0 0 0
301 2 1 0.954929658551372 86.73290387181264 79.20806217501391 0 -1 0 0
320 1 1 1.909859317102744 85.04858729430974 78.8788777207033 0 0 0 0
340 1 1 1.909859317102744 83.88984585919201 80.6033407292448 0 0 0 0
341 1 1 1.909859317102744 84.5726074476311 79.81879400158175 0 -1 0 0
321 1 1 1.909859317102744 54.691475764922416 83.26538025023031 0 0 0 0
342 2 1 0.954929658551372 56.272042748190145 82.91590493025723 0 0 0 0
361 1 1 1.909859317102744 86.31648375486692 80.75291763816386 0 -1 0 0
362 1 1 1.909859317102744 87.09739292300544 82.55881967336546 0 -1 0 0
343 1 1 1.909859317102744 56.893697321002506 81.22550110140071 0 0 0 0
344 1 1 1.909859317102744 58.13607868513139 81.66221087739312 0 0 0 0
345 1 1 1.909859317102744 62.97418051663453 82.24110013603762 0 0 0 0
363 1 1 1.909859317102744 57.62663151998476 82.82781150130978 0 0 0 0
364 1 1 1.909859317102744 59.92799964503244 82.17193870079115 0 0 0 0
365 2 1 0.954929658551372 60.47960240368131 84.29258425751789 0 0 0 0
366 1 1 1.909859317102744 64.63213094552485 83.48357949938959 0 0 0 0
346 1 1 1.909859317102744 65.7788810857424 83.38017652507392 0 0 0 0
347 1 1 1.909859317102744 65.95447881174641 78.95654946431645 0 0 0 0
348 1 1 1.909859317102744 65.87381458107038 80.27778863901507 0 0 0 0
368 1 1 1.909859317102744 66.8810475925934 80.61551775255084 0 0 0 0
349 1 1 1.909859317102744 68.34493294003987 82.53332946246358 0 0 0 0
350 1 1 1.909859317102744 69.1027166169832 80.68512010489465 0 0 0 0
370 1 1 1.909859317102744 67.04540277283652 83.69280197674708 0 0 0 0
331 1 1 1.909859317102744 70.54793984327694 80.69321185211984 0 0 0 0
371 1 1 1.909859317102744 70.35081936567855 82.76362444511517 0 0 0 0
353 1 1 1.909859317102744 71.96923482421832 81.39638775254917 0 0 0 0
373 1 1 1.909859317102744 73.86279719975096 83.53736615230672 0 0 0 0
335 1 1 1.909859317102744 76.77013922516666 81.49376901310976 0 0 0 0
354 1 1 1.909859317102744 75.72941250186298 82.1957185313637 0 0 0 0
355 1 1 1.909859317102744 75.7270973969795 83.53471391060802 0 0 0 0
374 1 1 1.909859317102744 76.78064064255548 82.56054789866099 0 0 0 0
356 1 1 1.909859317102744 78.16831489956064 81.94748155031851 0 0 0 0
358 1 1 1.909859317102744 82.39786023814115 84.10721005075638 0 0 0 0
378 1 1 1.909859317102744 83.42754569510355 84.71774069228249 0 0 0 0
359 2 1 0.954929658551372 85.68945436957262 84.41761434232211 0 0 0 0
360 1 1 1.909859317102744 84.91409442074554 81.11786918630654 0 0 0 0
381 1 1 1.909859317102744 86.80576529462463 84.04869121870786 0 -1 0 0
2 2 1 0.954929658551372 56.570617232593754 56.553774584799996 0 0 0 0
382 1 1 1.909859317102744 57.85188294576187 85.4796576905165 0 0 0 0
383 1 1 1.909859317102744 55.402886918694136 85.69038895815632 0 0 0 0
3 1 1 1.909859317102744 56.94729251995682 55.46354136426421 0 0 0 0
4 1 1 1.909859317102744 55.13484599461246 54.82901056961155 0 0 0 0
384 1 1 1.909859317102744 56.110312618496685 86.62733891301751 0 0 0 0
6 2 1 0.954929658551372 62.83651771129905 85.5311875658307 0 0 -1 0
385 1 1 1.909859317102744 57.40283024244945 84.14102499122653 0 0 0 0
386 1 1 1.909859317102744 58.41953123244121 84.55933920085538 0 0 0 0
7 1 1 1.909859317102744 64.67998619606595 86.85788224422853 0 0 -1 0
367 1 1 1.909859317102744 64.74321817868366 85.79760325633156 0 0 0 0
387 1 1 1.909859317102744 63.57110016528524 54.32992904428636 0 0 1 0
388 1 1 1.909859317102744 63.602907594215196 86.34130322385352 0 0 0 0
9 2 1 0.954929658551372 66.78129032729721 86.01418667856396 0 0 -1 0
369 2 1 0.954929658551372 66.5482045079034 84.91584618379895 0 0 0 0
389 1 1 1.909859317102744 71.53829362219071 83.02078160846763 0 0 0 0
390 1 1 1.909859317102744 69.02318332117147 86.82320819568929 0 0 0 0
12 1 1 1.909859317102744 72.50653206377217 86.23602304588266 0 0 -1 0
372 1 1 1.909859317102744 73.00433051789199 84.1769926511582 0 0 0 0
391 1 1 1.909859317102744 70.99472729436553 54.26081533994903 0 0 1 0
13 1 1 1.909859317102744 72.05732917119126 54.0459732473121 0 0 0 0
392 1 1 1.909859317102744 74.40356952901436 84.67488953316334 0 0 0 0
393 1 1 1.909859317102744 75.1706447673655 86.77479568849574 0 0 0 0
15 1 1 1.909859317102744 75.0028458304318 85.72717820269787 0 0 -1 0
375 1 1 1.909859317102744 76.76871922315901 83.94522666894147 0 0 0 0
394 1 1 1.909859317102744 75.6039720433564 84.76919929465802 0 0 0 0
395 2 1 0.954929658551372 77.38260146643896 86.7679532621907 0 0 0 0
376 2 1 0.954929658551372 78.53036458162588 84.47082328526102 0 0 0 0
377 1 1 1.909859317102744 79.7289147480814 83.96933481345744 0 0 0 0
396 1 1 1.909859317102744 78.5435250014238 86.79707465797586 0 0 0 0
397 1 1 1.909859317102744 80.65147388609702 86.22381343784579 0 0 0 0
379 1 1 1.909859317102744 82.71093221717835 85.83676629211465 0 0 0 0
398 2 1 0.954929658551372 81.29033992757489 84.25257064039133 0 0 0 0
19 1 1 1.909859317102744 84.10004962605748 85.55180275310849 0 0 -1 0
380 1 1 1.909859317102744 86.80078776121633 85.22939561566372 0 0 0 0
399 1 1 1.909859317102744 85.21027900771367 86.95741229352606 0 0 0 0
400 1 1 1.909859317102744 83.55011340018002 86.60111718023751 0 0 0 0

Velocities

1 0.2549514262652392 1.0539767422227135 0 0 0 0
21 1.2099711835945104 0.5400493247605571 0 0 0 0
22 -0.003581518204099431 0.6669573049644227 0 0 0 0
5 0.7941533305608899 -0.702561786369498 0 0 0 0
23 -0.18859779604045765 -1.3575605679254712 0 0 0 0
24 -1.3862543719472007 -1.4306786800910194 0 0 0 0.6351755811147903
25 -0.6736879301833141 -0.48070700129298866 0 0 0 0
26 0.16138378848531537 -0.13197906982974325 0 0 0 0
27 2.5090336125039663 -0.774788313990035 0 0 0 0
44 2.034670940549036 1.1105761712687947 0 0 0 0
28 1.0059461447136968 -1.1103987236187887 0 0 0 0
48 1.1830664427303317 2.3065654722853726 0 0 0 0
8 -0.47596445425797423 -1.6301339629349076 0 0 0 0
29 1.1990406548023096 -0.025173879563699018 0 0 0 0
30 -2.3199698217645506 -1.2264461132911306 0 0 0 0
10 -1.2311973054922691 0.4637959260084169 0 0 0 0
11 -2.2886807990334033 -1.895822509899127 0 0 0 0
51 0.868326721539318 -0.852047854832923 0 0 0 0
31 -1.4584438804999695 1.8072751260375939 0 0 0 0
32 -2.7783463978362963 -0.46149965207678584 0 0 0 0
33 1.966822226191515 1.1242461189933677 0 0 0 0
54 0.5486957600155322 -0.9240513373715974 0 0 0 -0.6004792662953805
14 0.12957541491626662 -0.2052657678652848 0 0 0 0
34 -0.33153121956533543 -2.8009497465305797 0 0 0 0
35 -1.4153432340888614 -0.6860271937401298 0 0 0 0
55 -0.8760093223944078 -0.7999992807649292 0 0 0 0
16 -0.5377882976074317 0.4897983987933965 0 0 0 0
17 2.220681719996757 -0.4892618801844782 0 0 0 0
36 0.8085997697495196 -0.0035680606437341503 0 0 0 -1.2492121791629451
18 0.007906659364274746 -0.5493650114243224 0 0 0 0
37 -0.22339773550311878 1.3046821160050697 0 0 0 0
38 0.5281424389064205 1.164062005162375 0 0 0 0
39 -0.8235319005321582 -2.067227143756666 0 0 0 0
59 2.032845909567884 2.3463963199466304 0 0 0 0