LAMMPS data file via write_data, version 10 Sep 2025, timestep = 1000, units = lj

8 atoms
1 atom types
8 ellipsoids

-1 2 xlo xhi
-1 2 ylo yhi
-1 2 zlo zhi

Atoms # ellipsoid/kk

2 1 1 53.05164769729846 1.1239133818057254 -0.30137665769383826 -0.3520256526213401 0 0 0
1 1 1 53.05164769729846 -0.28976316324638635 -0.05685433266979975 -0.7493103657812095 0 0 0
3 1 1 53.05164769729846 -0.6155615799314238 1.526665544882618 -0.978586569590861 0 0 0
5 1 1 53.05164769729846 -0.13056729994306296 1.6500738486902964 0.43899868797909536 0 -1 0
4 1 1 53.05164769729846 1.8313260840553423 1.6724444166456796 -0.021668197024441536 0 0 0
6 1 1 53.05164769729846 -0.9215630352649941 -0.35322137658943625 0.774309449562665 1 0 0
7 1 1 53.05164769729846 -0.8379898737700975 0.7359870329620509 0.9121730359670586 0 0 0
8 1 1 53.05164769729846 1.2427751514877277 1.5288511889652685 1.8786792767017895 0 0 0

Velocities

2 -0.7916059854350374 0.3283600120596885 0.8287402477763233 0.05 0 0
1 0.32375604803630886 0.7469987681482407 -0.0903060720189382 0.05 0 0
3 0.0024383702730725143 -0.03194172038014054 -1.1021514699823343 0.05 0 0
5 -0.9800329616215122 -1.1743487395905865 -2.4170909389278026 0.05 0.4 0
4 -0.27680654762710827 -0.015776814100463957 -0.4770480743947643 0.05 0 0
6 0.4948090791365008 -1.6049288665613017 -0.4496452932727375 0.05 0.4 0
7 0.2981588606909027 1.4553374768656415 0.28549447891341523 0.05 0.4 0
8 0.9292831365468749 -0.7037001164410789 0.9220071219068356 0 0 0.3

Ellipsoids

2 0.6 0.3 0.2 0.16977970981713256 -0.6780653155923821 -0.20620196804862864 -0.6847503386621184
1 0.6 0.3 0.2 0.16977970981713256 -0.6780653155923821 -0.20620196804862864 -0.6847503386621184
3 0.6 0.3 0.2 -0.761889698658399 -0.647706790977379 0 0
5 0.6 0.3 0.2 0.9999915354534284 0.0029093832245586683 0 0.0029093832245586683
4 0.6 0.3 0.2 1 0 0 0
6 0.6 0.3 0.2 0.9999915354534284 0.0029093832245586683 0 0.0029093832245586683
7 0.6 0.3 0.2 0.9999915354534284 0.0029093832245586683 0 0.0029093832245586683
8 0.6 0.3 0.2 0.9999904805980369 0.004363337404736631 0 0
