LAMMPS data file via write_data, version 10 Sep 2025, timestep = 10, units = lj

8 atoms
1 atom types
8 ellipsoids

0 2.201284832596418 xlo xhi
0 2.201284832596418 ylo yhi
0 2.201284832596418 zlo zhi

Atoms # ellipsoid/kk

1 1 1 53.05164769729846 9.981592681736033e-05 2.201284649491625 0.0004918864212185182 0 -1 0
3 1 1 53.05164769729846 1.1007422322250324 2.2012846499287937 0.0004918885930007089 0 -1 0
2 1 1 53.05164769729846 0.00010000009832271169 1.100642323416195 0.000508115750752772 0 0 0
4 1 1 53.05164769729846 1.1007424163475226 1.1006424154518626 0.0004999999994736105 0 0 0
5 1 1 53.05164769729846 0.0003003680458418465 0.00019856213651810533 1.1006496100136798 0 0 0
7 1 1 53.05164769729846 1.1009427843440416 0.00019856169937754173 1.1006496078419201 0 0 0
6 1 1 53.05164769729846 9.981592901808893e-05 1.100744130148497 1.101635220410767 0 0 0
8 1 1 53.05164769729846 1.1007422322762395 1.1007440381128017 1.1016433361620233 0 0 0

Velocities

1 0.009944177006020303 -5.5319944874878524e-05 0.047556266992034794 0.05 0 0
3 0.009944177010552117 -5.509238143805567e-05 0.047557394010398 0.05 0 0
2 0.010000051201500423 -2.8350491029375036e-05 0.052444859850232194 0.05 0 0
4 0.010000025717646717 -4.3970739732301924e-07 0.0499999995957415 0.05 0 0
5 0.03011159364144504 0.01956748076530708 0.0021648797598062455 0.05 0.4 0
7 0.030111593634588454 0.01956725322256043 0.0021637527581466497 0.05 0.4 0
6 0.009944178151035585 0.010516189670596929 0.09783399339792666 0 0 0.3
8 0.009944203637211933 0.010488278866275267 0.10027885363571343 0 0 0.3

Ellipsoids

1 0.6 0.3 0.2 0.9992604425579905 0.038452151289742935 0 0
3 0.6 0.3 0.2 0.9992604425579905 0.038452151289742935 0 0
2 0.6 0.3 0.2 0.9992604425579905 0.038452151289742935 0 0
4 0.6 0.3 0.2 0.9992604425579905 0.038452151289742935 0 0
5 0.6 0.3 0.2 0.9940852558146933 0.04278055834073921 0.09982116530118582 0.0002509139370840979
7 0.6 0.3 0.2 0.9940852558146933 0.04278055834073921 0.09982116530118582 0.0002509139370840979
6 0.6 0.3 0.2 0.9977690976446799 0.004336900851673882 0.00036238082253042315 0.06661747335694804
8 0.6 0.3 0.2 0.9977690976446799 0.004336900851673882 0.00036238082253042315 0.06661747335694804
