LAMMPS data file via write_data, version 10 Sep 2025, timestep = 1000, units = lj

8 atoms
1 atom types
8 ellipsoids

-1 2 xlo xhi
-1 2 ylo yhi
-1 2 zlo zhi

Atoms # ellipsoid

2 1 1 53.05164769729846 1.1239133818056435 -0.30137665769383837 -0.3520256526213401 0 0 0
1 1 1 53.05164769729846 -0.2897631632463863 -0.05685433266979975 -0.7493103657812095 0 0 0
3 1 1 53.05164769729846 -0.6155615799314239 1.526665544882618 -0.9785865695908614 0 0 0
5 1 1 53.05164769729846 -0.1305672999430641 1.6500738486902966 0.4389986879790958 0 -1 0
4 1 1 53.05164769729846 1.831326084055342 1.6724444166456796 -0.021668197024442587 0 0 0
6 1 1 53.05164769729846 -0.9215630352649944 -0.3532213765894361 0.7743094495626655 1 0 0
7 1 1 53.05164769729846 -0.837989873770097 0.7359870329620508 0.9121730359670587 0 0 0
8 1 1 53.05164769729846 1.2427751514877274 1.5288511889652683 1.8786792767017895 0 0 0

Velocities

2 -0.7916059854350421 0.3283600120596887 0.8287402477763228 0.05 0 0
1 0.3237560480363132 0.7469987681482393 -0.09030607201893925 0.05 0 0
3 0.002438370273077215 -0.0319417203801421 -1.102151469982345 0.05 0 0
5 -0.9800329616215154 -1.1743487395905843 -2.4170909389277995 0.05 0.4 0
4 -0.27680654762711393 -0.015776814100463804 -0.4770480743947601 0.05 0 0
6 0.4948090791365 -1.6049288665612993 -0.4496452932727324 0.05 0.4 0
7 0.29815886069090813 1.455337476865639 0.28549447891341684 0.05 0.4 0
8 0.9292831365468731 -0.7037001164410805 0.922007121906836 0 0 0.3

Ellipsoids

2 0.6 0.3 0.2 -0.761889698658399 -0.6477067909773789 0 0
1 0.6 0.3 0.2 -0.761889698658399 -0.6477067909773789 0 0
3 0.6 0.3 0.2 -0.761889698658399 -0.6477067909773789 0 0
5 0.6 0.3 0.2 0.5337304789056647 0.8260099627213828 0.147711934594256 -0.10497857757929434
4 0.6 0.3 0.2 -0.761889698658399 -0.6477067909773789 0 0
6 0.6 0.3 0.2 0.5337304789056647 0.8260099627213828 0.147711934594256 -0.10497857757929434
7 0.6 0.3 0.2 0.5337304789056647 0.8260099627213828 0.147711934594256 -0.10497857757929434
8 0.6 0.3 0.2 0.9273352679113037 0.0014570670048795781 0.0015392808159060143 0.37422561170794255
