LAMMPS data file via write_data, version 10 Sep 2025, timestep = 10, units = lj

8 atoms
1 atom types
8 ellipsoids

-1 2 xlo xhi
-1 2 ylo yhi
-1 2 zlo zhi

Atoms # ellipsoid

1 1 1 53.05164769729846 -0.0005216952831584016 -0.0015216908841369774 -0.0010247986044468708 0 0 0
2 1 1 53.05164769729846 1.1031622922902191 -0.0015216908841369774 -0.0010247986044468708 0 0 0
3 1 1 53.05164769729846 -0.0005203795503765148 1.102163152825715 -0.001016769986266166 0 0 0
4 1 1 53.05164769729846 1.1031636080230014 1.102163152825715 -0.001016769986266166 0 0 0
5 1 1 53.05164769729846 0.0014814582168309787 0.0004647617573661706 1.1021667548548075 0 0 0
6 1 1 53.05164769729846 1.1051654457902087 0.0004647617573661706 1.1021667548548075 0 0 0
7 1 1 53.05164769729846 -0.001422525933633901 1.102278608897474 1.1031596463323232 0 0 0
8 1 1 53.05164769729846 1.102261461639744 1.102278608897474 1.1031596463323232 0 0 0

Velocities

1 -0.20190766849796843 -0.3019054066695955 -0.2528350971193541 0.05 0 0
2 0.4013612309292261 -0.3019054066695955 -0.2528350971193541 0.05 0 0
3 -0.201512783177855 0.3016188826612901 -0.2504326903398002 0.05 0 0
4 0.4017561162493389 0.3016188826612901 -0.2504326903398002 0.05 0 0
5 -0.0009590022582076745 -0.10596844713939892 0.3026964126105639 0.05 0.4 0
6 0.6023098971689865 -0.10596844713939892 0.3026964126105639 0.05 0.4 0
7 -0.29215834492035664 0.31625497114770434 0.40057137484859034 0 0 0.3
8 0.31111055450683617 0.31625497114770434 0.40057137484859034 0 0 0.3

Ellipsoids

1 0.6 0.3 0.2 0.9992604425579905 0.038452151289742935 0 0
2 0.6 0.3 0.2 0.9992604425579905 0.038452151289742935 0 0
3 0.6 0.3 0.2 0.9992604425579905 0.038452151289742935 0 0
4 0.6 0.3 0.2 0.9992604425579905 0.038452151289742935 0 0
5 0.6 0.3 0.2 0.9940852558146933 0.04278055834073921 0.09982116530118582 0.0002509139370840979
6 0.6 0.3 0.2 0.9940852558146933 0.04278055834073921 0.09982116530118582 0.0002509139370840979
7 0.6 0.3 0.2 0.9977690976446799 0.004336900851673882 0.00036238082253042315 0.06661747335694804
8 0.6 0.3 0.2 0.9977690976446799 0.004336900851673882 0.00036238082253042315 0.06661747335694804
