LAMMPS (29 Aug 2024 - Development - patch_27Jun2024-1419-g2f775f79a6-modified)
variable number	equal 2
variable ofreq	equal 1000
variable efreq	equal 1000
variable T      equal 0.1

units lj

dimension 3

newton on

boundary  p p p

atom_style hybrid bond ellipsoid oxdna
WARNING: Atom style hybrid defines both, per-type and per-atom masses; both must be set, but only per-atom masses will be used (../atom_vec_hybrid.cpp:132)
atom_modify sort 0 1.0

# Pair interactions require lists of neighbours to be calculated
neighbor 2.0 bin
neigh_modify every 1 delay 0 check yes

read_data data.duplex2
Reading data file ...
  orthogonal box = (-20 -20 -20) to (20 20 20)
  1 by 1 by 1 MPI processor grid
  reading atoms ...
  16 atoms
  reading velocities ...
  16 velocities
  scanning bonds ...
  1 = max bonds/atom
  16 ellipsoids
  orthogonal box = (-20 -20 -20) to (20 20 20)
  1 by 1 by 1 MPI processor grid
  reading bonds ...
  13 bonds
Finding 1-2 1-3 1-4 neighbors ...
  special bond factors lj:    0        0        0       
  special bond factors coul:  0        0        0       
     2 = max # of 1-2 neighbors
     2 = max # of 1-3 neighbors
     4 = max # of 1-4 neighbors
     6 = max # of special neighbors
  special bonds CPU = 0.000 seconds
  read_data CPU = 0.002 seconds

set atom * mass 3.1575
Setting atom values ...
  16 settings made for mass

group all type 1 4
16 atoms in group all

# oxDNA bond interactions - FENE backbone
bond_style hybrid oxdna/fene harmonic
bond_coeff 1 oxdna/fene 2.0 0.25 0.7564
bond_coeff 2 harmonic 0.0 0.25
special_bonds lj 0 1 1
Finding 1-2 1-3 1-4 neighbors ...
  special bond factors lj:    0        1        1       
  special bond factors coul:  0        0        0       
     2 = max # of 1-2 neighbors
     2 = max # of 1-3 neighbors
     4 = max # of 1-4 neighbors
     6 = max # of special neighbors
  special bonds CPU = 0.000 seconds

# oxDNA pair interactions
pair_style hybrid/overlay oxdna/excv oxdna/stk
pair_coeff * * oxdna/excv    2.0 0.7 0.675 2.0 0.515 0.5 2.0 0.33 0.32
pair_coeff * * oxdna/stk     seqav ${T} 1.3448 2.6568 6.0 0.4 0.9 0.32 0.75 1.3 0 0.8 0.9 0 0.95 0.9 0 0.95 2.0 0.65 2.0 0.65
pair_coeff * * oxdna/stk     seqav 0.1 1.3448 2.6568 6.0 0.4 0.9 0.32 0.75 1.3 0 0.8 0.9 0 0.95 0.9 0 0.95 2.0 0.65 2.0 0.65

# NVE ensemble
fix 1 all nve/asphere
#fix 2 all langevin ${T} ${T} 2.5 457145 angmom 10

timestep 1e-5

#comm_style tiled
fix 3 all balance 1000 1.03 shift xyz 10 1.03
comm_modify cutoff 3.8

compute quat all property/atom quatw quati quatj quatk

compute erot all erotate/asphere
compute ekin all ke
compute epot all pe

variable erot equal c_erot
variable ekin equal c_ekin
variable epot equal c_epot
variable etot equal c_erot+c_ekin+c_epot

compute ebond all bond
compute eexcv all pair oxdna/excv
compute estk all pair oxdna/stk

variable ebond equal c_ebond[1]
variable eexcv equal c_eexcv
variable estk equal c_estk

fix 5 all print ${efreq} "$(step)  ekin = ${ekin} |  erot = ${erot} | epot = ${epot} | ebond = ${ebond} | eexcv = ${eexcv} | estk = ${estk} | etot = ${etot}" screen yes
fix 5 all print 1000 "$(step)  ekin = ${ekin} |  erot = ${erot} | epot = ${epot} | ebond = ${ebond} | eexcv = ${eexcv} | estk = ${estk} | etot = ${etot}" screen yes

dump out all custom ${ofreq} out.${number}.lammpstrj id mol type x y z ix iy iz vx vy vz c_quat[1] c_quat[2] c_quat[3] c_quat[4] angmomx angmomy angmomz
dump out all custom 1000 out.${number}.lammpstrj id mol type x y z ix iy iz vx vy vz c_quat[1] c_quat[2] c_quat[3] c_quat[4] angmomx angmomy angmomz
dump out all custom 1000 out.2.lammpstrj id mol type x y z ix iy iz vx vy vz c_quat[1] c_quat[2] c_quat[3] c_quat[4] angmomx angmomy angmomz
dump_modify out sort id
dump_modify out format line "%d %d %d  %22.15le %22.15le %22.15le  %d %d %d  %22.15le %22.15le %22.15le  %22.15le %22.15le %22.15le %22.15le  %22.15le %22.15le %22.15le"

run 100000

CITE-CITE-CITE-CITE-CITE-CITE-CITE-CITE-CITE-CITE-CITE-CITE-CITE

Your simulation uses code contributions which should be cited:

- Type Label Framework: https://doi.org/10.1021/acs.jpcb.3c08419

@Article{Gissinger24,
 author = {Jacob R. Gissinger, Ilia Nikiforov, Yaser Afshar, Brendon Waters, Moon-ki Choi, Daniel S. Karls, Alexander Stukowski, Wonpil Im, Hendrik Heinz, Axel Kohlmeyer, and Ellad B. Tadmor},
 title = {Type Label Framework for Bonded Force Fields in LAMMPS},
 journal = {J. Phys. Chem. B},
 year =    2024,
 volume =  128,
 number =  13,
 pages =   {3282–-3297}
}

CITE-CITE-CITE-CITE-CITE-CITE-CITE-CITE-CITE-CITE-CITE-CITE-CITE

Generated 0 of 6 mixed pair_coeff terms from geometric mixing rule
Neighbor list info ...
  update: every = 1 steps, delay = 0 steps, check = yes
  max neighbors/atom: 2000, page size: 100000
  master list distance cutoff = 2.9560004
  ghost atom cutoff = 3.8
  binsize = 1.4780002, bins = 28 28 28
  1 neighbor lists, perpetual/occasional/extra = 1 0 0
  (1) pair oxdna/excv, perpetual
      attributes: half, newton on
      pair build: half/bin/newton
      stencil: half/bin/3d
      bin: standard
0  ekin = 2.70475393009871 |  erot = 2.80172072918779 | epot = -14.9566687452227 | ebond = 0.26263213074271 | eexcv = 0 | estk = -15.2193008759655 | etot = -9.45019408593625
Per MPI rank memory allocation (min/avg/max) = 6.189 | 6.189 | 6.189 Mbytes
   Step          Temp          E_pair         E_mol          TotEng         Press          Volume    
         0   0.12021129    -0.9512063      0.016414508   -0.76574468    -6.9491471e-05  64000        
1000  ekin = 2.63696678269933 |  erot = 2.76640533948547 | epot = -14.8535662080103 | ebond = 0.260237786318727 | eexcv = 0 | estk = -15.113803994329 | etot = -9.45019408582549
2000  ekin = 2.56256437021242 |  erot = 2.72409972868822 | epot = -14.7368581845725 | ebond = 0.260389816410993 | eexcv = 0 | estk = -14.9972480009835 | etot = -9.45019408567188
3000  ekin = 2.48312762620338 |  erot = 2.67573103589087 | epot = -14.609052747565 | ebond = 0.26278230634554 | eexcv = 0 | estk = -14.8718350539105 | etot = -9.45019408547072
4000  ekin = 2.40061126561715 |  erot = 2.62257917109183 | epot = -14.4733845219337 | ebond = 0.267073267456113 | eexcv = 0 | estk = -14.7404577893898 | etot = -9.4501940852247
5000  ekin = 2.31733704810776 |  erot = 2.56622606275063 | epot = -14.3337571958052 | ebond = 0.272897142406696 | eexcv = 0 | estk = -14.6066543382119 | etot = -9.45019408494682
6000  ekin = 2.23589912231012 |  erot = 2.50843885331535 | epot = -14.1945320602869 | ebond = 0.279876969604569 | eexcv = 0 | estk = -14.4744090298915 | etot = -9.45019408466146
7000  ekin = 2.15896932233536 |  erot = 2.45098734190382 | epot = -14.0601507486412 | ebond = 0.287635672480899 | eexcv = 0 | estk = -14.3477864211221 | etot = -9.45019408440199
8000  ekin = 2.08901977576122 |  erot = 2.39541739019387 | epot = -13.9346312501593 | ebond = 0.295806109266662 | eexcv = 0 | estk = -14.230437359426 | etot = -9.45019408420421
9000  ekin = 2.02801444733971 |  erot = 2.34282476114524 | epot = -13.8210332925823 | ebond = 0.304039762016023 | eexcv = 0 | estk = -14.1250730545983 | etot = -9.45019408409731
10000  ekin = 1.97714562715294 |  erot = 2.29368783270572 | epot = -13.7210275439534 | ebond = 0.312014206182891 | eexcv = 0 | estk = -14.0330417501363 | etot = -9.4501940840947
11000  ekin = 1.93669106396386 |  erot = 2.24781323610992 | epot = -13.6346983842627 | ebond = 0.319439720074979 | eexcv = 0 | estk = -13.9541381043377 | etot = -9.4501940841889
12000  ekin = 1.9060372139718 |  erot = 2.20442279332866 | epot = -13.5606540916527 | ebond = 0.326065507732197 | eexcv = 0 | estk = -13.8867195993849 | etot = -9.45019408435227
13000  ekin = 1.88386406479716 |  erot = 2.16237053727517 | epot = -13.4964286866168 | ebond = 0.331685978236335 | eexcv = 0 | estk = -13.8281146648532 | etot = -9.45019408454449
14000  ekin = 1.86843869114456 |  erot = 2.12044034928944 | epot = -13.439073125157 | ebond = 0.336147337336167 | eexcv = 0 | estk = -13.7752204624931 | etot = -9.45019408472297
15000  ekin = 1.85793868238606 |  erot = 2.07765321423557 | epot = -13.3857859814741 | ebond = 0.339354427801579 | eexcv = 0 | estk = -13.7251404092757 | etot = -9.45019408485249
16000  ekin = 1.8507308604023 |  erot = 2.03351558898739 | epot = -13.3344405343013 | ebond = 0.341277364107399 | eexcv = 0 | estk = -13.6757178984087 | etot = -9.45019408491158
17000  ekin = 1.84555797393951 |  erot = 1.98816307689841 | epot = -13.2839151357324 | ebond = 0.341957134047727 | eexcv = 0 | estk = -13.6258722697801 | etot = -9.45019408489446
18000  ekin = 1.8416205439981 |  erot = 1.94238505589807 | epot = -13.2341996847044 | ebond = 0.341509083057944 | eexcv = 0 | estk = -13.5757087677623 | etot = -9.45019408480822
19000  ekin = 1.83856847725448 |  erot = 1.89754395362263 | epot = -13.1863065155461 | ebond = 0.3401231378803 | eexcv = 0 | estk = -13.5264296534264 | etot = -9.45019408466898
20000  ekin = 1.83643082953776 |  erot = 1.85542006887901 | epot = -13.1420449829142 | ebond = 0.33805980415925 | eexcv = 0 | estk = -13.4801047870735 | etot = -9.45019408449747
21000  ekin = 1.8355132692346 |  erot = 1.8180179652717 | epot = -13.1037253188213 | ebond = 0.335641370024504 | eexcv = 0 | estk = -13.4393666888458 | etot = -9.45019408431501
22000  ekin = 1.83628651628125 |  erot = 1.78736658217118 | epot = -13.0738471825935 | ebond = 0.333238292457106 | eexcv = 0 | estk = -13.4070854750506 | etot = -9.45019408414107
23000  ekin = 1.83928067658997 |  erot = 1.7653367818267 | epot = -13.0548115424085 | ebond = 0.33125132791921 | eexcv = 0 | estk = -13.3860628703277 | etot = -9.45019408399181
24000  ekin = 1.84499339226565 |  erot = 1.75349080450408 | epot = -13.0486782806491 | ebond = 0.330090481093311 | eexcv = 0 | estk = -13.3787687617424 | etot = -9.45019408387937
25000  ekin = 1.8538153046856 |  erot = 1.75297023956084 | epot = -13.056979628059 | ebond = 0.330152198113014 | eexcv = 0 | estk = -13.387131826172 | etot = -9.45019408381252
26000  ekin = 1.85657269920789 |  erot = 1.76512771569693 | epot = -13.0718944964975 | ebond = 0.331761867881487 | eexcv = 0.00860481179225908 | estk = -13.4122611761712 | etot = -9.45019408159263
27000  ekin = 1.85202980977754 |  erot = 1.79428329709164 | epot = -13.0965071844926 | ebond = 0.334769179577766 | eexcv = 0.021645857364563 | estk = -13.452922221435 | etot = -9.45019407762346
28000  ekin = 1.88145846566558 |  erot = 1.83546325771719 | epot = -13.1671158072552 | ebond = 0.339178294113168 | eexcv = 0.00143735506917867 | estk = -13.5077314564376 | etot = -9.45019408387246
29000  ekin = 1.90443395555587 |  erot = 1.87721630808222 | epot = -13.2318443430029 | ebond = 0.345668406421703 | eexcv = 0 | estk = -13.5775127494247 | etot = -9.45019407936486
30000  ekin = 1.9287812817366 |  erot = 1.92826643433974 | epot = -13.3072417955797 | ebond = 0.354553421524729 | eexcv = 0 | estk = -13.6617952171044 | etot = -9.45019407950332
31000  ekin = 1.95488523421898 |  erot = 1.98759053316999 | epot = -13.3926698470656 | ebond = 0.365775634199041 | eexcv = 0 | estk = -13.7584454812646 | etot = -9.45019407967658
32000  ekin = 1.98203495453308 |  erot = 2.05332680671006 | epot = -13.4855558411207 | ebond = 0.379161583415069 | eexcv = 0 | estk = -13.8647174245357 | etot = -9.45019407987754
33000  ekin = 2.00939474430249 |  erot = 2.12336277068859 | epot = -13.5829515950881 | ebond = 0.394428263121069 | eexcv = 0 | estk = -13.9773798582092 | etot = -9.45019408009706
34000  ekin = 2.03604885546374 |  erot = 2.19543232434984 | epot = -13.6816752601384 | ebond = 0.411191996704431 | eexcv = 0 | estk = -14.0928672568428 | etot = -9.45019408032478
35000  ekin = 2.06105822737383 |  erot = 2.26722132645824 | epot = -13.7784736343817 | ebond = 0.428981388572074 | eexcv = 0 | estk = -14.2074550229538 | etot = -9.45019408054964
36000  ekin = 2.08352810460971 |  erot = 2.33647599557031 | epot = -13.8701981809394 | ebond = 0.447253821885395 | eexcv = 0 | estk = -14.3174520028248 | etot = -9.45019408075936
37000  ekin = 2.10268635075452 |  erot = 2.40110867743665 | epot = -13.953989109133 | ebond = 0.465414858316905 | eexcv = 0 | estk = -14.4194039674499 | etot = -9.45019408094183
38000  ekin = 2.11797381584565 |  erot = 2.459297341137 | epot = -14.0274652380668 | ebond = 0.482839770036748 | eexcv = 0 | estk = -14.5103050081036 | etot = -9.45019408108419
39000  ekin = 2.12914962706803 |  erot = 2.5095784379736 | epot = -14.0889221462137 | ebond = 0.498896319329649 | eexcv = 0 | estk = -14.5878184655434 | etot = -9.45019408117209
40000  ekin = 2.13641417185398 |  erot = 2.55093638945649 | epot = -14.1375446425 | ebond = 0.512967836906941 | eexcv = 0 | estk = -14.650512479407 | etot = -9.45019408118956
41000  ekin = 2.14054807947788 |  erot = 2.58289454475643 | epot = -14.1736367053538 | ebond = 0.524475678128392 | eexcv = 0 | estk = -14.6981123834822 | etot = -9.4501940811195
42000  ekin = 2.14305316012835 |  erot = 2.60560833335066 | epot = -14.1988555744257 | ebond = 0.53290028089479 | eexcv = 0 | estk = -14.7317558553205 | etot = -9.45019408094667
43000  ekin = 2.14625882853294 |  erot = 2.61994810914771 | epot = -14.2164010183454 | ebond = 0.537800294488252 | eexcv = 0 | estk = -14.7542013128337 | etot = -9.45019408066477
44000  ekin = 2.15332860053435 |  erot = 2.62753703304371 | epot = -14.2310597138644 | ebond = 0.538829527803229 | eexcv = 0 | estk = -14.7698892416676 | etot = -9.45019408028635
45000  ekin = 2.16808040967328 |  erot = 2.63068668584461 | epot = -14.2489611753712 | ebond = 0.535751667270816 | eexcv = 0 | estk = -14.7847128426421 | etot = -9.45019407985335
46000  ekin = 2.19454759394793 |  erot = 2.63216837710358 | epot = -14.2769100504919 | ebond = 0.52845272428781 | eexcv = 0 | estk = -14.8053627747797 | etot = -9.45019407944035
47000  ekin = 2.23627850799755 |  erot = 2.63479243026073 | epot = -14.3212650174013 | ebond = 0.516950938258161 | eexcv = 0 | estk = -14.8382159556595 | etot = -9.45019407914302
48000  ekin = 2.29549712145316 |  erot = 2.64084620322299 | epot = -14.3865374037278 | ebond = 0.501403464183794 | eexcv = 0 | estk = -14.8879408679116 | etot = -9.45019407905167
49000  ekin = 2.37236976446791 |  erot = 2.65153483133167 | epot = -14.4740986750164 | ebond = 0.482108829398527 | eexcv = 0 | estk = -14.956207504415 | etot = -9.45019407921686
50000  ekin = 2.46465679842623 |  erot = 2.66661770334796 | epot = -14.5814685814007 | ebond = 0.459504106089512 | eexcv = 0 | estk = -15.0409726874902 | etot = -9.45019407962648
51000  ekin = 2.56791736385614 |  erot = 2.68438975218264 | epot = -14.7025011962465 | ebond = 0.434156137236846 | eexcv = 0 | estk = -15.1366573334833 | etot = -9.45019408020772
52000  ekin = 2.67622053434314 |  erot = 2.70202838918491 | epot = -14.8284430043806 | ebond = 0.406746856110189 | eexcv = 0 | estk = -15.2351898604908 | etot = -9.45019408085252
53000  ekin = 2.76258696546152 |  erot = 2.71506919858316 | epot = -14.9278502605186 | ebond = 0.378043875345689 | eexcv = 0.0217265466896387 | estk = -15.3276206825539 | etot = -9.45019409647391
54000  ekin = 2.80658284984453 |  erot = 2.72256335797603 | epot = -14.979340287657 | ebond = 0.348639635916906 | eexcv = 0.078841230479646 | estk = -15.4068211540535 | etot = -9.45019407983642
55000  ekin = 2.95372316641836 |  erot = 2.73113359811585 | epot = -15.1350508650777 | ebond = 0.319029472958371 | eexcv = 0.0122900327921727 | estk = -15.4663703708282 | etot = -9.45019410054348
56000  ekin = 3.03902672528984 |  erot = 2.71991431196001 | epot = -15.2091351301888 | ebond = 0.290250153560929 | eexcv = 0 | estk = -15.4993852837497 | etot = -9.45019409293891
57000  ekin = 3.09568630641362 |  erot = 2.69393685411349 | epot = -15.2398172534315 | ebond = 0.263419158818657 | eexcv = 0 | estk = -15.5032364122501 | etot = -9.45019409290435
58000  ekin = 3.13407274625108 |  erot = 2.65532808124656 | epot = -15.2395949202319 | ebond = 0.239411248445012 | eexcv = 0 | estk = -15.4790061686769 | etot = -9.45019409273429
59000  ekin = 3.15479428860616 |  erot = 2.60589671012646 | epot = -15.2108850911856 | ebond = 0.219034746740357 | eexcv = 0 | estk = -15.429919837926 | etot = -9.45019409245299
60000  ekin = 3.15943789536336 |  erot = 2.54828681799708 | epot = -15.1579188054425 | ebond = 0.203013633884896 | eexcv = 0 | estk = -15.3609324393274 | etot = -9.45019409208201
61000  ekin = 3.15043072701828 |  erot = 2.48576455348402 | epot = -15.0863893721464 | ebond = 0.191966792349774 | eexcv = 0 | estk = -15.2783561644962 | etot = -9.45019409164411
62000  ekin = 3.13089265283254 |  erot = 2.42197665327392 | epot = -15.0030633972763 | ebond = 0.186390427302477 | eexcv = 0 | estk = -15.1894538245788 | etot = -9.45019409116982
63000  ekin = 3.10442657879498 |  erot = 2.36066586927784 | epot = -14.9152865387714 | ebond = 0.186643797027476 | eexcv = 0 | estk = -15.1019303357988 | etot = -9.45019409069854
64000  ekin = 3.07481539984382 |  erot = 2.30534613868745 | epot = -14.8303556288083 | ebond = 0.192938084155387 | eexcv = 0 | estk = -15.0232937129636 | etot = -9.45019409027698
65000  ekin = 3.04563775105382 |  erot = 2.2589686562283 | epot = -14.7548004972331 | ebond = 0.205328000909814 | eexcv = 0 | estk = -14.9601284981429 | etot = -9.45019408995095
66000  ekin = 3.01986185569194 |  erot = 2.22363487662224 | epot = -14.6936908220689 | ebond = 0.223705639822141 | eexcv = 0 | estk = -14.9173964618911 | etot = -9.45019408975477
67000  ekin = 2.99950579212469 |  erot = 2.20041933225079 | epot = -14.650119214078 | ebond = 0.247796224421732 | eexcv = 0 | estk = -14.8979154384997 | etot = -9.45019408970253
68000  ekin = 2.98544706082076 |  erot = 2.18934608058993 | epot = -14.6249872311952 | ebond = 0.277155799220652 | eexcv = 0 | estk = -14.9021430304158 | etot = -9.4501940897845
69000  ekin = 2.97742410216368 |  erot = 2.18952248268415 | epot = -14.6171406748195 | ebond = 0.311171461740988 | eexcv = 0 | estk = -14.9283121365605 | etot = -9.45019408997168
70000  ekin = 2.97421539312553 |  erot = 2.19938993216263 | epot = -14.6237994155118 | ebond = 0.349065337480051 | eexcv = 0 | estk = -14.9728647529918 | etot = -9.45019409022363
71000  ekin = 2.9739342710389 |  erot = 2.21702323137675 | epot = -14.641151592916 | ebond = 0.389903944322123 | eexcv = 0 | estk = -15.0310555372381 | etot = -9.45019409050034
72000  ekin = 2.97435870141958 |  erot = 2.24040975973949 | epot = -14.664962551928 | ebond = 0.432614716477771 | eexcv = 0 | estk = -15.0975772684058 | etot = -9.45019409076896
73000  ekin = 2.97322695346033 |  erot = 2.26766281226792 | epot = -14.6910838567358 | ebond = 0.476011161093693 | eexcv = 0 | estk = -15.1670950178295 | etot = -9.45019409100759
74000  ekin = 2.96846034483002 |  erot = 2.29715621325918 | epot = -14.7158106492934 | ebond = 0.51882739781503 | eexcv = 0 | estk = -15.2346380471084 | etot = -9.45019409120415
75000  ekin = 2.95830648202751 |  erot = 2.32759427426479 | epot = -14.7360948476456 | ebond = 0.559761762311309 | eexcv = 0 | estk = -15.2958566099569 | etot = -9.45019409135334
76000  ekin = 2.93001139587842 |  erot = 2.36243849996161 | epot = -14.7426440001842 | ebond = 0.597531310512387 | eexcv = 0.00698265546303499 | estk = -15.3471579661596 | etot = -9.4501941043442
77000  ekin = 2.80867074597492 |  erot = 2.46746769246258 | epot = -14.7263325316993 | ebond = 0.631103697766927 | eexcv = 0.0272357035387818 | estk = -15.384671933005 | etot = -9.45019409326182
78000  ekin = 2.7492262167131 |  erot = 2.54756549797572 | epot = -14.7469858133451 | ebond = 0.659530566520707 | eexcv = 0 | estk = -15.4065163798658 | etot = -9.45019409865624
79000  ekin = 2.71148265253788 |  erot = 2.57102717990079 | epot = -14.7327039310114 | ebond = 0.681646193592442 | eexcv = 0 | estk = -15.4143501246039 | etot = -9.45019409857275
80000  ekin = 2.66705847158385 |  erot = 2.59534611704521 | epot = -14.7125986870577 | ebond = 0.696716072846771 | eexcv = 0 | estk = -15.4093147599044 | etot = -9.45019409842861
81000  ekin = 2.61719419391677 |  erot = 2.62174694345562 | epot = -14.6891352356018 | ebond = 0.704307678619161 | eexcv = 0 | estk = -15.393442914221 | etot = -9.45019409822944
82000  ekin = 2.56369149726656 |  erot = 2.65171822204723 | epot = -14.6656038173059 | ebond = 0.704262412526217 | eexcv = 0 | estk = -15.3698662298321 | etot = -9.45019409799208
83000  ekin = 2.50881574320698 |  erot = 2.68682301594648 | epot = -14.6458328568998 | ebond = 0.69669764924426 | eexcv = 0 | estk = -15.342530506144 | etot = -9.4501940977463
84000  ekin = 2.45508964679068 |  erot = 2.7284289509523 | epot = -14.6337126952758 | ebond = 0.681994055960883 | eexcv = 0 | estk = -15.3157067512367 | etot = -9.45019409753283
85000  ekin = 2.40498266935538 |  erot = 2.77739526590914 | epot = -14.6325720326594 | ebond = 0.660770196793043 | eexcv = 0 | estk = -15.2933422294525 | etot = -9.4501940973949
86000  ekin = 2.36054856053023 |  erot = 2.83378825874059 | epot = -14.6445309166363 | ebond = 0.633847255395574 | eexcv = 0 | estk = -15.2783781720319 | etot = -9.45019409736548
87000  ekin = 2.32310540887484 |  erot = 2.89671209613497 | epot = -14.6700116024651 | ebond = 0.602207058275884 | eexcv = 0 | estk = -15.272218660741 | etot = -9.45019409745527
88000  ekin = 2.29306040568071 |  erot = 2.96432203929531 | epot = -14.7075765426236 | ebond = 0.566946564860692 | eexcv = 0 | estk = -15.2745231074843 | etot = -9.45019409764755
89000  ekin = 2.26994051071861 |  erot = 3.03403094267919 | epot = -14.754165551301 | ebond = 0.529231748766538 | eexcv = 0 | estk = -15.2833973000675 | etot = -9.45019409790316
90000  ekin = 2.25261490365653 |  erot = 3.10285031343187 | epot = -14.8056593152624 | ebond = 0.49025343048676 | eexcv = 0 | estk = -15.2959127457492 | etot = -9.45019409817405
91000  ekin = 2.2396242607651 |  erot = 3.16776026678922 | epot = -14.8575786259728 | ebond = 0.451187172895692 | eexcv = 0 | estk = -15.3087657988685 | etot = -9.45019409841845
92000  ekin = 2.22950282085027 |  erot = 3.22600367176054 | epot = -14.9057005912226 | ebond = 0.413158816768142 | eexcv = 0 | estk = -15.3188594079907 | etot = -9.45019409861175
93000  ekin = 2.22100271367728 |  erot = 3.27524563992139 | epot = -14.9464424523472 | ebond = 0.377216622176344 | eexcv = 0 | estk = -15.3236590745236 | etot = -9.45019409874855
94000  ekin = 2.21318645434853 |  erot = 3.31360241926423 | epot = -14.9769829724493 | ebond = 0.344310339988711 | eexcv = 0 | estk = -15.321293312438 | etot = -9.45019409883651
95000  ekin = 2.20540982038172 |  erot = 3.33959110721832 | epot = -14.9951950264878 | ebond = 0.315276943403259 | eexcv = 0 | estk = -15.3104719698911 | etot = -9.45019409888775
96000  ekin = 2.19724857999142 |  erot = 3.35206534244793 | epot = -14.9995080213511 | ebond = 0.290832279052035 | eexcv = 0 | estk = -15.2903403004032 | etot = -9.45019409891179
97000  ekin = 2.18842261139469 |  erot = 3.35018475032587 | epot = -14.9888014606328 | ebond = 0.271567597035421 | eexcv = 0 | estk = -15.2603690576682 | etot = -9.4501940989122
98000  ekin = 2.17874977878462 |  erot = 3.33343345762891 | epot = -14.9623773353005 | ebond = 0.25794979515024 | eexcv = 0 | estk = -15.2203271304507 | etot = -9.45019409888695
99000  ekin = 2.16813554472031 |  erot = 3.30167343191226 | epot = -14.9200030754645 | ebond = 0.250324237309645 | eexcv = 0 | estk = -15.1703273127741 | etot = -9.45019409883188
100000  ekin = 2.15658537576665 |  erot = 3.25520289898352 | epot = -14.861982373494 | ebond = 0.24891913441896 | eexcv = 0 | estk = -15.1109015079129 | etot = -9.4501940987438
    100000   0.095848239   -0.94443134     0.015557446   -0.79408731    -7.4864189e-06  64000        
Loop time of 1.08575 on 1 procs for 100000 steps with 16 atoms

Performance: 79576.517 tau/day, 92102.451 timesteps/s, 1.474 Matom-step/s
100.0% CPU use with 1 MPI tasks x no OpenMP threads

MPI task timing breakdown:
Section |  min time  |  avg time  |  max time  |%varavg| %total
---------------------------------------------------------------
Pair    | 0.6716     | 0.6716     | 0.6716     |   0.0 | 61.86
Bond    | 0.096778   | 0.096778   | 0.096778   |   0.0 |  8.91
Neigh   | 0.0065063  | 0.0065063  | 0.0065063  |   0.0 |  0.60
Comm    | 0.035035   | 0.035035   | 0.035035   |   0.0 |  3.23
Output  | 0.0043202  | 0.0043202  | 0.0043202  |   0.0 |  0.40
Modify  | 0.23133    | 0.23133    | 0.23133    |   0.0 | 21.31
Other   |            | 0.04018    |            |       |  3.70

Nlocal:             16 ave          16 max          16 min
Histogram: 1 0 0 0 0 0 0 0 0 0
Nghost:              0 ave           0 max           0 min
Histogram: 1 0 0 0 0 0 0 0 0 0
Neighs:            107 ave         107 max         107 min
Histogram: 1 0 0 0 0 0 0 0 0 0

Total # of neighbors = 107
Ave neighs/atom = 6.6875
Ave special neighs/atom = 3.75
Neighbor list builds = 100
Dangerous builds = 0

Total wall time: 0:00:01
