LAMMPS (10 Sep 2025 - Development - patch_19Nov2024-4573-g7a837a83c1-modified)
KOKKOS mode with Kokkos version 4.7.1 is enabled
  using double precision
  using view layout = default
  will use up to 1 GPU(s) per node
  using 2 OpenMP thread(s) per MPI task
package kokkos
package kokkos comm device neigh half newton off
###
# Box and units  (use LJ units and periodic boundaries)
###

units           lj
atom_style      ellipsoid
dimension	3
boundary	p p p

lattice		sc 0.75
Lattice spacing in x,y,z = 1.1006424 1.1006424 1.1006424
region		box block 0 64 0 64 0 64
create_box	1 box
Created orthogonal box = (0 0 0) to (70.441115 70.441115 70.441115)
  1 by 1 by 1 MPI processor grid
create_atoms	1 box
Created 262144 atoms
  using lattice units in orthogonal box = (0 0 0) to (70.441115 70.441115 70.441115)
  create_atoms CPU = 0.028 seconds

group           all type 1
262144 atoms in group all
set             type 1 mass 1.0
Setting atom values ...
  262144 settings made for mass
set             type 1 shape 0.6 0.4 0.6
Setting atom values ...
  262144 settings made for shape
#set             type 1 quat/random 29898
group		subA id 1:10000
10000 atoms in group subA
group		subB id 10001:100000
90000 atoms in group subB
group           subC id 100001:200000
100000 atoms in group subC

#velocity 	all create 0.1 87287 loop geom #rot yes # 'rot yes' zeros angmom
set group	subA vx 0.01 vy 0.0 vz 0.0
Setting atom values ...
  10000 settings made for vx
  10000 settings made for vy
  10000 settings made for vz
set group	subB vx -0.03 vy 0.02 vz 0.0
Setting atom values ...
  90000 settings made for vx
  90000 settings made for vy
  90000 settings made for vz
set group	subC vx 0.01 vy 0.01 vz 0.1
Setting atom values ...
  100000 settings made for vx
  100000 settings made for vy
  100000 settings made for vz
set group 	subA angmom 0.05 0.0 0.0
Setting atom values ...
  10000 settings made for angmom
set group 	subB angmom 0.05 0.4 0.0
Setting atom values ...
  90000 settings made for angmom
set group 	subC angmom 0.00 0.0 0.3
Setting atom values ...
  100000 settings made for angmom
set group 	subA quat 0.9237853184 0.382910976 0.0 0.0
Setting atom values ...
  10000 settings made for quat
set group 	subB quat 0.5774 0.0 0.5774 0.5774
Setting atom values ...
  90000 settings made for quat
set group 	subC quat 0.707106816 0.0 0.0 0.707106816
Setting atom values ...
  100000 settings made for quat

neighbor        0.3 bin
neigh_modify    delay 0 every 100 check yes

###################################################################
# Pair interaction between non-bonded atoms
#
#  Lennard-Jones 12-6 potential with cutoff:
#  potential E=4epsilon[ (sigma/r)^12 - (sigma/r)^6]  for r<r_cut
#
#  1.12246152962189 = 2^(1/6) is the minimum of the potential

pair_style      lj/cut 1.12246152962189

#
#  pair_coeff for lj/cut, specify 4:
#    * atom type interacting with
#    * atom type
#    * epsilon (energy units)
#    * sigma (distance units)
#

pair_coeff      1 1 1.0 1.12246152962189

#
#  pair_modify shift yes adds a constant to the potential such
#  that E(r_cut)=0. Forces remains unchanged.
#

pair_modify     shift yes

###################################################
reset_atoms 	id sort yes
Resetting atom IDs ...
Generated 0 of 0 mixed pair_coeff terms from geometric mixing rule
Neighbor list info ...
  update: every = 100 steps, delay = 0 steps, check = yes
  max neighbors/atom: 2000, page size: 100000
  master list distance cutoff = 1.4224615
  ghost atom cutoff = 1.4224615
  binsize = 1.4224615, bins = 50 50 50
  1 neighbor lists, perpetual/occasional/extra = 1 0 0
  (1) pair lj/cut/kk, perpetual
      attributes: half, newton off, kokkos_device
      pair build: half/bin/newtoff/kk/device
      stencil: full/bin/3d
      bin: kk/device

comm_modify cutoff 6
comm_style tiled
balance 1.2 rcb
Balancing ...
Generated 0 of 0 mixed pair_coeff terms from geometric mixing rule

###
# Set up fixes
###

fix 1 all   nve/asphere   ###NVE ensemble
#fix 2 all   langevin   1.0 1.0   2.0   424242   ###Langevin integrator Tstart Tstop 1/friction rndseed

compute ekin all ke
compute epot all pe
compute erot all erotate/asphere
variable ekin equal c_ekin
variable epot equal c_epot
variable erot equal c_erot
variable etot equal c_ekin+c_epot+c_erot

fix 3 all print 1 "$(step)  ekin = ${ekin} | epot = ${epot} | erot = ${erot} | etot = ${etot}" screen yes

compute q all property/atom quatw quati quatj quatk
compute diameter all property/atom shapex shapey shapez
dump 1 all custom 50 dump.polymer id type x y z c_q[1] c_q[2] c_q[3] c_q[4] c_diameter[1] c_diameter[2] c_diameter[3]
dump_modify 1 colname c_q[1] quatw colname c_q[2] quati colname c_q[3] quatj colname c_q[4] quatk

###################################################

timestep 0.00001 #0.012

run 5000

CITE-CITE-CITE-CITE-CITE-CITE-CITE-CITE-CITE-CITE-CITE-CITE-CITE

Your simulation uses code contributions which should be cited:

- KOKKOS package: https://doi.org/10.1145/3731599.3767498

@inproceedings{Johansson25,
 author = {A. Johansson and E. Weinberg and C. Trott and M. McCarthy and S. Moore},
 title = {{LAMMPS-KOKKOS}: {P}erformance Portable Molecular Dynamics Across Exascale Architectures},
 year = 2025,
 booktitle = {Proceedings of the SC '25 Workshops of the International Conference for High Performance Computing,
  Networking, Storage and Analysis},
 pages = {1217–1232},
}

CITE-CITE-CITE-CITE-CITE-CITE-CITE-CITE-CITE-CITE-CITE-CITE-CITE

Generated 0 of 0 mixed pair_coeff terms from geometric mixing rule
0  ekin = 569.000000001008 | epot = 442355.735002327 | erot = 377998.016929688 | etot = 820922.751932016
Per MPI rank memory allocation (min/avg/max) = 146.4 | 146.4 | 146.4 Mbytes
   Step          Temp          E_pair         E_mol          TotEng         Press     
         0   0.0014470473   1.6874532      0              1.6896238      25.313389    
1  ekin = 568.999997979312 | epot = 442355.735004342 | erot = 377998.082037453 | etot = 820922.817039775
2  ekin = 568.999991913731 | epot = 442355.735010387 | erot = 377998.146483594 | etot = 820922.881485894
3  ekin = 568.999981804537 | epot = 442355.735020461 | erot = 377998.210267801 | etot = 820922.945270067
4  ekin = 568.999967651859 | epot = 442355.735034566 | erot = 377998.273389769 | etot = 820923.008391987
5  ekin = 568.999949455213 | epot = 442355.735052699 | erot = 377998.335849192 | etot = 820923.070851346
6  ekin = 568.999927215063 | epot = 442355.735074863 | erot = 377998.397645761 | etot = 820923.13264784
7  ekin = 568.999900930998 | epot = 442355.735101057 | erot = 377998.458779172 | etot = 820923.19378116
8  ekin = 568.999870603632 | epot = 442355.73513128 | erot = 377998.519249118 | etot = 820923.254251002
9  ekin = 568.999836232353 | epot = 442355.735165532 | erot = 377998.579055293 | etot = 820923.314057058
10  ekin = 568.999797817742 | epot = 442355.735203815 | erot = 377998.638197391 | etot = 820923.373199024
11  ekin = 568.999755359246 | epot = 442355.735246127 | erot = 377998.696675106 | etot = 820923.431676593
12  ekin = 568.999708857784 | epot = 442355.735292469 | erot = 377998.754488133 | etot = 820923.48948946
13  ekin = 568.999658312412 | epot = 442355.735342841 | erot = 377998.811636166 | etot = 820923.546637319
14  ekin = 568.999603723025 | epot = 442355.735397242 | erot = 377998.8681189 | etot = 820923.603119865
15  ekin = 568.999545090516 | epot = 442355.735455672 | erot = 377998.92393603 | etot = 820923.658936793
16  ekin = 568.999482414774 | epot = 442355.735518132 | erot = 377998.97908725 | etot = 820923.714087797
17  ekin = 568.999415695171 | epot = 442355.735584622 | erot = 377999.033572257 | etot = 820923.768572574
18  ekin = 568.999344932041 | epot = 442355.735655141 | erot = 377999.087390744 | etot = 820923.822390818
19  ekin = 568.999270125469 | epot = 442355.73572969 | erot = 377999.140542408 | etot = 820923.875542224
20  ekin = 568.999191275542 | epot = 442355.735808269 | erot = 377999.193026945 | etot = 820923.928026489
21  ekin = 568.999108382591 | epot = 442355.735890876 | erot = 377999.244844049 | etot = 820923.979843308
22  ekin = 568.999021445657 | epot = 442355.735977513 | erot = 377999.295993417 | etot = 820924.030992376
23  ekin = 568.998930466309 | epot = 442355.73606818 | erot = 377999.346474745 | etot = 820924.081473391
24  ekin = 568.998835442829 | epot = 442355.736162876 | erot = 377999.396287729 | etot = 820924.131286048
25  ekin = 568.998736376967 | epot = 442355.736261601 | erot = 377999.445432065 | etot = 820924.180430043
26  ekin = 568.998633267218 | epot = 442355.736364355 | erot = 377999.493907451 | etot = 820924.228905073
27  ekin = 568.998526114378 | epot = 442355.736471139 | erot = 377999.541713581 | etot = 820924.276710835
28  ekin = 568.998414919405 | epot = 442355.736581952 | erot = 377999.588850155 | etot = 820924.323847026
29  ekin = 568.998299680199 | epot = 442355.736696794 | erot = 377999.635316867 | etot = 820924.370313341
30  ekin = 568.998180398483 | epot = 442355.736815665 | erot = 377999.681113416 | etot = 820924.416109479
31  ekin = 568.998057073979 | epot = 442355.736938565 | erot = 377999.726239498 | etot = 820924.461235137
32  ekin = 568.997929706136 | epot = 442355.737065494 | erot = 377999.770694811 | etot = 820924.505690011
33  ekin = 568.997798295876 | epot = 442355.737196453 | erot = 377999.814479053 | etot = 820924.549473801
34  ekin = 568.997662842125 | epot = 442355.737331439 | erot = 377999.85759192 | etot = 820924.592586202
35  ekin = 568.997523346625 | epot = 442355.737470455 | erot = 377999.900033112 | etot = 820924.635026914
36  ekin = 568.997379807346 | epot = 442355.737613499 | erot = 377999.941802326 | etot = 820924.676795633
37  ekin = 568.997232225889 | epot = 442355.737760573 | erot = 377999.98289926 | etot = 820924.717892059
38  ekin = 568.997080601967 | epot = 442355.737911675 | erot = 378000.023323613 | etot = 820924.75831589
39  ekin = 568.996924935631 | epot = 442355.738066805 | erot = 378000.063075082 | etot = 820924.798066823
40  ekin = 568.996765226558 | epot = 442355.738225965 | erot = 378000.102153367 | etot = 820924.837144559
41  ekin = 568.996601475064 | epot = 442355.738389153 | erot = 378000.140558167 | etot = 820924.875548794
42  ekin = 568.996433681543 | epot = 442355.738556369 | erot = 378000.178289179 | etot = 820924.913279229
43  ekin = 568.996261845331 | epot = 442355.738727613 | erot = 378000.215346104 | etot = 820924.950335562
44  ekin = 568.996085967398 | epot = 442355.738902886 | erot = 378000.25172864 | etot = 820924.986717493
45  ekin = 568.99590604757 | epot = 442355.739082187 | erot = 378000.287436486 | etot = 820925.022424721
46  ekin = 568.995722085001 | epot = 442355.739265517 | erot = 378000.322469344 | etot = 820925.057456945
47  ekin = 568.995534080474 | epot = 442355.739452874 | erot = 378000.356826911 | etot = 820925.091813865
48  ekin = 568.995342034544 | epot = 442355.739644259 | erot = 378000.390508887 | etot = 820925.125495181
49  ekin = 568.995145946692 | epot = 442355.739839672 | erot = 378000.423514974 | etot = 820925.158500593
50  ekin = 568.99494581688 | epot = 442355.740039113 | erot = 378000.455844871 | etot = 820925.1908298
51  ekin = 568.994741645393 | epot = 442355.740242581 | erot = 378000.487498277 | etot = 820925.222482504
52  ekin = 568.994533432759 | epot = 442355.740450078 | erot = 378000.518474894 | etot = 820925.253458404
53  ekin = 568.994321178066 | epot = 442355.740661601 | erot = 378000.548774423 | etot = 820925.283757202
54  ekin = 568.994104882648 | epot = 442355.740877153 | erot = 378000.578396563 | etot = 820925.313378598
55  ekin = 568.993884545358 | epot = 442355.741096732 | erot = 378000.607341016 | etot = 820925.342322293
56  ekin = 568.99366016671 | epot = 442355.741320338 | erot = 378000.635607482 | etot = 820925.370587987
57  ekin = 568.993431747591 | epot = 442355.741547971 | erot = 378000.663195664 | etot = 820925.398175383
58  ekin = 568.993199286434 | epot = 442355.741779632 | erot = 378000.690105262 | etot = 820925.425084181
59  ekin = 568.992962785081 | epot = 442355.74201532 | erot = 378000.716335978 | etot = 820925.451314083
60  ekin = 568.992722242692 | epot = 442355.742255034 | erot = 378000.741887513 | etot = 820925.476864791
61  ekin = 568.992477659528 | epot = 442355.742498776 | erot = 378000.76675957 | etot = 820925.501736006
62  ekin = 568.992229035995 | epot = 442355.742746544 | erot = 378000.79095185 | etot = 820925.52592743
63  ekin = 568.991976371452 | epot = 442355.742998339 | erot = 378000.814464055 | etot = 820925.549438766
64  ekin = 568.991719666711 | epot = 442355.743254161 | erot = 378000.837295888 | etot = 820925.572269716
65  ekin = 568.991458921129 | epot = 442355.743514009 | erot = 378000.859447051 | etot = 820925.594419981
66  ekin = 568.991194135732 | epot = 442355.743777883 | erot = 378000.880917247 | etot = 820925.615889266
67  ekin = 568.990925310504 | epot = 442355.744045784 | erot = 378000.901706178 | etot = 820925.636677272
68  ekin = 568.99065244447 | epot = 442355.74431771 | erot = 378000.921813547 | etot = 820925.656783702
69  ekin = 568.990375539154 | epot = 442355.744593663 | erot = 378000.941239058 | etot = 820925.67620826
70  ekin = 568.99009459413 | epot = 442355.744873642 | erot = 378000.959982413 | etot = 820925.694950649
71  ekin = 568.989809608575 | epot = 442355.745157647 | erot = 378000.978043316 | etot = 820925.713010572
72  ekin = 568.989520583702 | epot = 442355.745445677 | erot = 378000.99542147 | etot = 820925.730387731
73  ekin = 568.989227519452 | epot = 442355.745737733 | erot = 378001.01211658 | etot = 820925.747081832
74  ekin = 568.988930416112 | epot = 442355.746033814 | erot = 378001.028128348 | etot = 820925.763092578
75  ekin = 568.988629273703 | epot = 442355.746333921 | erot = 378001.043456479 | etot = 820925.778419674
76  ekin = 568.98832409223 | epot = 442355.746638053 | erot = 378001.058100677 | etot = 820925.793062822
77  ekin = 568.988014870672 | epot = 442355.74694621 | erot = 378001.072060646 | etot = 820925.807021727
78  ekin = 568.987701611977 | epot = 442355.747258392 | erot = 378001.085336091 | etot = 820925.820296095
79  ekin = 568.987384313186 | epot = 442355.747574599 | erot = 378001.097926716 | etot = 820925.832885628
80  ekin = 568.987062976033 | epot = 442355.747894831 | erot = 378001.109832226 | etot = 820925.844790033
81  ekin = 568.986737600619 | epot = 442355.748219087 | erot = 378001.121052326 | etot = 820925.856009013
82  ekin = 568.986408186783 | epot = 442355.748547368 | erot = 378001.131586721 | etot = 820925.866542275
83  ekin = 568.986074734444 | epot = 442355.748879673 | erot = 378001.141435116 | etot = 820925.876389523
84  ekin = 568.98573724431 | epot = 442355.749216003 | erot = 378001.150597216 | etot = 820925.885550463
85  ekin = 568.985395716572 | epot = 442355.749556356 | erot = 378001.159072728 | etot = 820925.894024801
86  ekin = 568.985050150821 | epot = 442355.749900734 | erot = 378001.166861357 | etot = 820925.901812242
87  ekin = 568.984700547484 | epot = 442355.750249136 | erot = 378001.173962808 | etot = 820925.908912491
88  ekin = 568.984346906528 | epot = 442355.750601561 | erot = 378001.180376788 | etot = 820925.915325255
89  ekin = 568.983989228283 | epot = 442355.750958009 | erot = 378001.186103002 | etot = 820925.92105024
90  ekin = 568.983627512291 | epot = 442355.751318481 | erot = 378001.191141158 | etot = 820925.926087151
91  ekin = 568.983261759898 | epot = 442355.751682976 | erot = 378001.195490961 | etot = 820925.930435697
92  ekin = 568.982891970228 | epot = 442355.752051494 | erot = 378001.199152119 | etot = 820925.934095583
93  ekin = 568.982518143789 | epot = 442355.752424036 | erot = 378001.202124337 | etot = 820925.937066517
94  ekin = 568.982140280464 | epot = 442355.7528006 | erot = 378001.204407324 | etot = 820925.939348204
95  ekin = 568.981758381289 | epot = 442355.753181186 | erot = 378001.206000785 | etot = 820925.940940352
96  ekin = 568.981372445489 | epot = 442355.753565795 | erot = 378001.206904429 | etot = 820925.941842669
97  ekin = 568.980982473267 | epot = 442355.753954427 | erot = 378001.207117962 | etot = 820925.942054862
98  ekin = 568.980588465457 | epot = 442355.75434708 | erot = 378001.206641093 | etot = 820925.941576638
99  ekin = 568.980190421308 | epot = 442355.754743756 | erot = 378001.205473529 | etot = 820925.940407706
100  ekin = 568.979788342265 | epot = 442355.755144453 | erot = 378001.203614977 | etot = 820925.938547772
101  ekin = 568.979382226738 | epot = 442355.755549172 | erot = 378001.201065147 | etot = 820925.935996546
102  ekin = 568.978972076489 | epot = 442355.755957913 | erot = 378001.197823745 | etot = 820925.932753735
103  ekin = 568.97855789131 | epot = 442355.756370675 | erot = 378001.193890482 | etot = 820925.928819048
104  ekin = 568.978139670398 | epot = 442355.756787458 | erot = 378001.189265064 | etot = 820925.924192192
105  ekin = 568.977717414735 | epot = 442355.757208262 | erot = 378001.183947201 | etot = 820925.918872878
106  ekin = 568.977291124147 | epot = 442355.757633088 | erot = 378001.177936602 | etot = 820925.912860814
107  ekin = 568.976860799714 | epot = 442355.758061934 | erot = 378001.171232975 | etot = 820925.906155708
108  ekin = 568.976426441091 | epot = 442355.758494801 | erot = 378001.16383603 | etot = 820925.898757271
109  ekin = 568.975988047698 | epot = 442355.758931688 | erot = 378001.155745476 | etot = 820925.890665211
110  ekin = 568.975545620252 | epot = 442355.759372595 | erot = 378001.146961022 | etot = 820925.881879237
111  ekin = 568.975099159417 | epot = 442355.759817522 | erot = 378001.137482379 | etot = 820925.87239906
112  ekin = 568.974648664658 | epot = 442355.760266469 | erot = 378001.127309255 | etot = 820925.862224388
113  ekin = 568.974194136373 | epot = 442355.760719435 | erot = 378001.116441362 | etot = 820925.851354933
114  ekin = 568.973735575696 | epot = 442355.761176421 | erot = 378001.104878408 | etot = 820925.839790405
115  ekin = 568.973272981226 | epot = 442355.761637426 | erot = 378001.092620105 | etot = 820925.827530512
116  ekin = 568.972806353784 | epot = 442355.76210245 | erot = 378001.079666162 | etot = 820925.814574966
117  ekin = 568.972335693559 | epot = 442355.762571494 | erot = 378001.066016291 | etot = 820925.800923478
118  ekin = 568.971861000889 | epot = 442355.763044556 | erot = 378001.051670202 | etot = 820925.786575758
119  ekin = 568.971382276461 | epot = 442355.763521636 | erot = 378001.036627605 | etot = 820925.771531518
120  ekin = 568.970899519759 | epot = 442355.764002735 | erot = 378001.020888213 | etot = 820925.755790468
121  ekin = 568.97041273058 | epot = 442355.764487852 | erot = 378001.004451736 | etot = 820925.739352319
122  ekin = 568.969921909958 | epot = 442355.764976987 | erot = 378000.987317886 | etot = 820925.722216783
123  ekin = 568.96942705773 | epot = 442355.76547014 | erot = 378000.969486374 | etot = 820925.704383572
124  ekin = 568.968928174672 | epot = 442355.76596731 | erot = 378000.950956912 | etot = 820925.685852397
125  ekin = 568.968425259766 | epot = 442355.766468498 | erot = 378000.931729212 | etot = 820925.66662297
126  ekin = 568.967918314707 | epot = 442355.766973703 | erot = 378000.911802985 | etot = 820925.646695003
127  ekin = 568.967407338386 | epot = 442355.767482924 | erot = 378000.891177945 | etot = 820925.626068208
128  ekin = 568.966892331674 | epot = 442355.767996163 | erot = 378000.869853803 | etot = 820925.604742298
129  ekin = 568.966373294766 | epot = 442355.768513418 | erot = 378000.847830272 | etot = 820925.582716985
130  ekin = 568.965850228132 | epot = 442355.769034689 | erot = 378000.825107064 | etot = 820925.559991982
131  ekin = 568.965323130781 | epot = 442355.769559977 | erot = 378000.801683893 | etot = 820925.536567001
132  ekin = 568.964792004204 | epot = 442355.77008928 | erot = 378000.777560472 | etot = 820925.512441756
133  ekin = 568.96425684814 | epot = 442355.770622599 | erot = 378000.752736513 | etot = 820925.48761596
134  ekin = 568.963717663528 | epot = 442355.771159934 | erot = 378000.72721173 | etot = 820925.462089327
135  ekin = 568.963174448871 | epot = 442355.771701284 | erot = 378000.700985836 | etot = 820925.435861569
136  ekin = 568.962627205752 | epot = 442355.772246649 | erot = 378000.674058545 | etot = 820925.4089324
137  ekin = 568.962075933765 | epot = 442355.772796029 | erot = 378000.646429571 | etot = 820925.381301534
138  ekin = 568.961520634178 | epot = 442355.773349423 | erot = 378000.618098628 | etot = 820925.352968686
139  ekin = 568.960961305929 | epot = 442355.773906832 | erot = 378000.58906543 | etot = 820925.323933568
140  ekin = 568.960397950238 | epot = 442355.774468255 | erot = 378000.559329692 | etot = 820925.294195897
141  ekin = 568.959830566462 | epot = 442355.775033692 | erot = 378000.528891127 | etot = 820925.263755385
142  ekin = 568.959259155509 | epot = 442355.775603142 | erot = 378000.49774945 | etot = 820925.232611748
143  ekin = 568.958683716718 | epot = 442355.776176606 | erot = 378000.465904376 | etot = 820925.2007647
144  ekin = 568.958104252014 | epot = 442355.776754084 | erot = 378000.433355621 | etot = 820925.168213957
145  ekin = 568.957520759846 | epot = 442355.777335574 | erot = 378000.400102899 | etot = 820925.134959233
146  ekin = 568.956933241584 | epot = 442355.777921077 | erot = 378000.366145925 | etot = 820925.101000243
147  ekin = 568.956341696537 | epot = 442355.778510592 | erot = 378000.331484415 | etot = 820925.066336704
148  ekin = 568.955746126181 | epot = 442355.77910412 | erot = 378000.296118084 | etot = 820925.030968331
149  ekin = 568.955146529751 | epot = 442355.77970166 | erot = 378000.260046649 | etot = 820924.994894839
150  ekin = 568.954542907593 | epot = 442355.780303212 | erot = 378000.223269825 | etot = 820924.958115945
151  ekin = 568.953935260446 | epot = 442355.780908776 | erot = 378000.185787328 | etot = 820924.920631364
152  ekin = 568.953323587981 | epot = 442355.781518351 | erot = 378000.147598875 | etot = 820924.882440813
153  ekin = 568.952707890829 | epot = 442355.782131937 | erot = 378000.108704181 | etot = 820924.843544009
154  ekin = 568.952088168915 | epot = 442355.782749533 | erot = 378000.069102965 | etot = 820924.803940667
155  ekin = 568.951464422828 | epot = 442355.783371141 | erot = 378000.028794941 | etot = 820924.763630504
156  ekin = 568.950836653279 | epot = 442355.783996758 | erot = 377999.987779827 | etot = 820924.722613239
157  ekin = 568.95020485955 | epot = 442355.784626386 | erot = 377999.946057341 | etot = 820924.680888586
158  ekin = 568.949569041974 | epot = 442355.785260023 | erot = 377999.903627199 | etot = 820924.638456265
159  ekin = 568.948929201416 | epot = 442355.785897671 | erot = 377999.860489119 | etot = 820924.595315991
160  ekin = 568.948285338175 | epot = 442355.786539328 | erot = 377999.816642818 | etot = 820924.551467484
161  ekin = 568.947637451765 | epot = 442355.787184993 | erot = 377999.772088015 | etot = 820924.50691046
162  ekin = 568.946985542774 | epot = 442355.787834667 | erot = 377999.726824426 | etot = 820924.461644637
163  ekin = 568.946329611804 | epot = 442355.788488351 | erot = 377999.680851771 | etot = 820924.415669733
164  ekin = 568.945669658683 | epot = 442355.789146042 | erot = 377999.634169767 | etot = 820924.368985468
165  ekin = 568.945005684155 | epot = 442355.789807742 | erot = 377999.586778132 | etot = 820924.321591558
166  ekin = 568.944337688197 | epot = 442355.790473448 | erot = 377999.538676586 | etot = 820924.273487723
167  ekin = 568.943665671133 | epot = 442355.791143163 | erot = 377999.489864847 | etot = 820924.224673681
168  ekin = 568.942989632362 | epot = 442355.791816885 | erot = 377999.440342633 | etot = 820924.17514915
169  ekin = 568.942309574093 | epot = 442355.792494614 | erot = 377999.390109665 | etot = 820924.124913852
170  ekin = 568.941625495337 | epot = 442355.793176349 | erot = 377999.33916566 | etot = 820924.073967505
171  ekin = 568.940937396093 | epot = 442355.793862091 | erot = 377999.287510339 | etot = 820924.022309826
172  ekin = 568.940245277311 | epot = 442355.794551839 | erot = 377999.235143421 | etot = 820923.969940537
173  ekin = 568.939549139205 | epot = 442355.795245593 | erot = 377999.182064625 | etot = 820923.916859358
174  ekin = 568.938848981875 | epot = 442355.795943353 | erot = 377999.128273673 | etot = 820923.863066007
175  ekin = 568.93814480545 | epot = 442355.796645118 | erot = 377999.073770282 | etot = 820923.808560206
176  ekin = 568.937436610422 | epot = 442355.797350888 | erot = 377999.018554175 | etot = 820923.753341673
177  ekin = 568.936724396978 | epot = 442355.798060663 | erot = 377998.962625071 | etot = 820923.69741013
178  ekin = 568.936008165704 | epot = 442355.798774442 | erot = 377998.90598269 | etot = 820923.640765298
179  ekin = 568.935287916565 | epot = 442355.799492225 | erot = 377998.848626754 | etot = 820923.583406896
180  ekin = 568.934563649736 | epot = 442355.800214012 | erot = 377998.790556983 | etot = 820923.525334645
181  ekin = 568.933835365864 | epot = 442355.800939803 | erot = 377998.731773099 | etot = 820923.466548267
182  ekin = 568.933103065186 | epot = 442355.801669597 | erot = 377998.672274822 | etot = 820923.407047483
183  ekin = 568.932366747908 | epot = 442355.802403394 | erot = 377998.612061873 | etot = 820923.346832015
184  ekin = 568.931626413925 | epot = 442355.803141193 | erot = 377998.551133976 | etot = 820923.285901583
185  ekin = 568.930882064863 | epot = 442355.803882995 | erot = 377998.48949085 | etot = 820923.22425591
186  ekin = 568.930133699329 | epot = 442355.804628799 | erot = 377998.427132218 | etot = 820923.161894717
187  ekin = 568.929381318825 | epot = 442355.805378605 | erot = 377998.364057803 | etot = 820923.098817727
188  ekin = 568.928624923214 | epot = 442355.806132413 | erot = 377998.300267326 | etot = 820923.035024662
189  ekin = 568.927864512475 | epot = 442355.806890222 | erot = 377998.235760509 | etot = 820922.970515243
190  ekin = 568.927100087937 | epot = 442355.807652031 | erot = 377998.170537075 | etot = 820922.905289195
191  ekin = 568.926331648948 | epot = 442355.808417841 | erot = 377998.104596747 | etot = 820922.839346238
192  ekin = 568.925559196134 | epot = 442355.809187652 | erot = 377998.037939248 | etot = 820922.772686097
193  ekin = 568.924782729366 | epot = 442355.809961462 | erot = 377997.970564301 | etot = 820922.705308493
194  ekin = 568.924002250181 | epot = 442355.810739273 | erot = 377997.902471629 | etot = 820922.637213152
195  ekin = 568.923217757227 | epot = 442355.811521082 | erot = 377997.833660955 | etot = 820922.568399794
196  ekin = 568.922429252545 | epot = 442355.812306891 | erot = 377997.764132003 | etot = 820922.498868146
197  ekin = 568.921636735373 | epot = 442355.813096698 | erot = 377997.693884496 | etot = 820922.42861793
198  ekin = 568.92084020592 | epot = 442355.813890504 | erot = 377997.622918159 | etot = 820922.357648869
199  ekin = 568.920039664628 | epot = 442355.814688308 | erot = 377997.551232715 | etot = 820922.285960688
200  ekin = 568.91923511247 | epot = 442355.815490109 | erot = 377997.47882789 | etot = 820922.213553111
201  ekin = 568.918426549437 | epot = 442355.816295908 | erot = 377997.405703406 | etot = 820922.140425864
202  ekin = 568.917613975695 | epot = 442355.817105705 | erot = 377997.331858989 | etot = 820922.066578669
203  ekin = 568.916797391772 | epot = 442355.817919497 | erot = 377997.257294363 | etot = 820921.992011253
204  ekin = 568.915976797984 | epot = 442355.818737287 | erot = 377997.182009254 | etot = 820921.916723339
205  ekin = 568.91515219496 | epot = 442355.819559073 | erot = 377997.106003386 | etot = 820921.840714653
206  ekin = 568.91432358157 | epot = 442355.820384853 | erot = 377997.029276484 | etot = 820921.763984919
207  ekin = 568.913490959323 | epot = 442355.82121463 | erot = 377996.951828275 | etot = 820921.686533865
208  ekin = 568.912654329509 | epot = 442355.822048402 | erot = 377996.873658483 | etot = 820921.608361214
209  ekin = 568.911813690573 | epot = 442355.822886168 | erot = 377996.794766834 | etot = 820921.529466694
210  ekin = 568.910969043501 | epot = 442355.823727929 | erot = 377996.715153055 | etot = 820921.449850028
211  ekin = 568.910120389458 | epot = 442355.824573685 | erot = 377996.634816871 | etot = 820921.369510945
212  ekin = 568.909267727994 | epot = 442355.825423434 | erot = 377996.553758008 | etot = 820921.28844917
213  ekin = 568.908411059751 | epot = 442355.826277176 | erot = 377996.471976193 | etot = 820921.206664429
214  ekin = 568.907550385102 | epot = 442355.827134912 | erot = 377996.389471153 | etot = 820921.124156449
215  ekin = 568.90668570352 | epot = 442355.82799664 | erot = 377996.306242614 | etot = 820921.040924957
216  ekin = 568.905817016837 | epot = 442355.828862361 | erot = 377996.222290303 | etot = 820920.956969681
217  ekin = 568.904944324155 | epot = 442355.829732074 | erot = 377996.137613947 | etot = 820920.872290345
218  ekin = 568.904067626441 | epot = 442355.830605778 | erot = 377996.052213274 | etot = 820920.786886678
219  ekin = 568.903186923811 | epot = 442355.831483474 | erot = 377995.966088011 | etot = 820920.700758408
220  ekin = 568.902302217403 | epot = 442355.832365161 | erot = 377995.879237885 | etot = 820920.613905263
221  ekin = 568.901413506166 | epot = 442355.833250838 | erot = 377995.791662625 | etot = 820920.526326969
222  ekin = 568.900520791366 | epot = 442355.834140505 | erot = 377995.703361958 | etot = 820920.438023255
223  ekin = 568.899624073519 | epot = 442355.835034163 | erot = 377995.614335612 | etot = 820920.348993849
224  ekin = 568.89872335216 | epot = 442355.83593181 | erot = 377995.524583317 | etot = 820920.259238479
225  ekin = 568.897818628205 | epot = 442355.836833447 | erot = 377995.434104799 | etot = 820920.168756874
226  ekin = 568.896909902861 | epot = 442355.837739072 | erot = 377995.342899788 | etot = 820920.077548763
227  ekin = 568.895997174456 | epot = 442355.838648686 | erot = 377995.250968013 | etot = 820919.985613873
228  ekin = 568.895080445284 | epot = 442355.839562288 | erot = 377995.158309202 | etot = 820919.892951935
229  ekin = 568.894159715042 | epot = 442355.840479877 | erot = 377995.064923085 | etot = 820919.799562677
230  ekin = 568.893234983682 | epot = 442355.841401454 | erot = 377994.970809391 | etot = 820919.705445829
231  ekin = 568.892306251796 | epot = 442355.842327019 | erot = 377994.875967849 | etot = 820919.610601119
232  ekin = 568.891373520462 | epot = 442355.843256569 | erot = 377994.780398189 | etot = 820919.515028279
233  ekin = 568.890436789054 | epot = 442355.844190106 | erot = 377994.684100142 | etot = 820919.418727037
234  ekin = 568.889496058349 | epot = 442355.845127629 | erot = 377994.587073436 | etot = 820919.321697123
235  ekin = 568.888551328854 | epot = 442355.846069137 | erot = 377994.489317803 | etot = 820919.223938269
236  ekin = 568.887602601106 | epot = 442355.847014631 | erot = 377994.390832972 | etot = 820919.125450204
237  ekin = 568.886649875199 | epot = 442355.847964109 | erot = 377994.291618674 | etot = 820919.026232659
238  ekin = 568.885693151427 | epot = 442355.848917571 | erot = 377994.19167464 | etot = 820918.926285363
239  ekin = 568.88473242998 | epot = 442355.849875018 | erot = 377994.0910006 | etot = 820918.825608048
240  ekin = 568.883767712197 | epot = 442355.850836448 | erot = 377993.989596286 | etot = 820918.724200446
241  ekin = 568.882798997082 | epot = 442355.851801861 | erot = 377993.887461429 | etot = 820918.622062287
242  ekin = 568.881826286047 | epot = 442355.852771258 | erot = 377993.78459576 | etot = 820918.519193304
243  ekin = 568.880849580116 | epot = 442355.853744636 | erot = 377993.68099901 | etot = 820918.415593227
244  ekin = 568.87986887813 | epot = 442355.854721997 | erot = 377993.576670912 | etot = 820918.311261788
245  ekin = 568.878884180762 | epot = 442355.855703339 | erot = 377993.471611198 | etot = 820918.206198718
246  ekin = 568.877895489686 | epot = 442355.856688663 | erot = 377993.365819599 | etot = 820918.100403752
247  ekin = 568.876902804115 | epot = 442355.857677968 | erot = 377993.259295847 | etot = 820917.993876619
248  ekin = 568.875906124782 | epot = 442355.858671253 | erot = 377993.152039676 | etot = 820917.886617054
249  ekin = 568.874905452099 | epot = 442355.859668518 | erot = 377993.044050817 | etot = 820917.778624787
250  ekin = 568.873900786186 | epot = 442355.860669762 | erot = 377992.935329004 | etot = 820917.669899552
251  ekin = 568.872892128538 | epot = 442355.861674987 | erot = 377992.825873969 | etot = 820917.560441084
252  ekin = 568.87187947747 | epot = 442355.862684189 | erot = 377992.715685445 | etot = 820917.450249112
253  ekin = 568.870862835859 | epot = 442355.86369737 | erot = 377992.604763167 | etot = 820917.339323373
254  ekin = 568.869842201745 | epot = 442355.86471453 | erot = 377992.493106866 | etot = 820917.227663597
255  ekin = 568.868817577433 | epot = 442355.865735667 | erot = 377992.380716277 | etot = 820917.115269521
256  ekin = 568.867788963406 | epot = 442355.866760781 | erot = 377992.267591134 | etot = 820917.002140879
257  ekin = 568.866756357761 | epot = 442355.867789872 | erot = 377992.153731171 | etot = 820916.888277401
258  ekin = 568.86571976343 | epot = 442355.86882294 | erot = 377992.039136121 | etot = 820916.773678824
259  ekin = 568.86467918016 | epot = 442355.869859983 | erot = 377991.923805719 | etot = 820916.658344883
260  ekin = 568.86363460732 | epot = 442355.870901002 | erot = 377991.8077397 | etot = 820916.54227531
261  ekin = 568.862586046397 | epot = 442355.871945996 | erot = 377991.690937799 | etot = 820916.425469842
262  ekin = 568.861533497394 | epot = 442355.872994965 | erot = 377991.573399749 | etot = 820916.307928212
263  ekin = 568.860476961347 | epot = 442355.874047909 | erot = 377991.455125287 | etot = 820916.189650157
264  ekin = 568.85941643739 | epot = 442355.875104826 | erot = 377991.336114147 | etot = 820916.07063541
265  ekin = 568.858351927514 | epot = 442355.876165716 | erot = 377991.216366065 | etot = 820915.950883708
266  ekin = 568.857283430626 | epot = 442355.87723058 | erot = 377991.095880775 | etot = 820915.830394786
267  ekin = 568.856210948854 | epot = 442355.878299416 | erot = 377990.974658016 | etot = 820915.70916838
268  ekin = 568.855134481094 | epot = 442355.879372224 | erot = 377990.85269752 | etot = 820915.587204226
269  ekin = 568.854054028742 | epot = 442355.880449004 | erot = 377990.729999026 | etot = 820915.464502059
270  ekin = 568.852969591503 | epot = 442355.881529755 | erot = 377990.606562269 | etot = 820915.341061616
271  ekin = 568.851881170538 | epot = 442355.882614478 | erot = 377990.482386986 | etot = 820915.216882634
272  ekin = 568.85078876599 | epot = 442355.88370317 | erot = 377990.357472913 | etot = 820915.091964849
273  ekin = 568.849692378168 | epot = 442355.884795833 | erot = 377990.231819787 | etot = 820914.966307998
274  ekin = 568.848592007626 | epot = 442355.885892465 | erot = 377990.105427345 | etot = 820914.839911818
275  ekin = 568.847487654749 | epot = 442355.886993067 | erot = 377989.978295324 | etot = 820914.712776046
276  ekin = 568.846379320156 | epot = 442355.888097636 | erot = 377989.850423462 | etot = 820914.584900418
277  ekin = 568.845267003993 | epot = 442355.889206174 | erot = 377989.721811495 | etot = 820914.456284674
278  ekin = 568.844150707199 | epot = 442355.89031868 | erot = 377989.592459162 | etot = 820914.32692855
279  ekin = 568.843030429805 | epot = 442355.891435154 | erot = 377989.462366201 | etot = 820914.196831784
280  ekin = 568.841906172666 | epot = 442355.892555594 | erot = 377989.331532349 | etot = 820914.065994116
281  ekin = 568.84077793527 | epot = 442355.893680001 | erot = 377989.199957344 | etot = 820913.93441528
282  ekin = 568.839645719429 | epot = 442355.894808374 | erot = 377989.067640925 | etot = 820913.802095018
283  ekin = 568.838509524587 | epot = 442355.895940712 | erot = 377988.934582831 | etot = 820913.669033068
284  ekin = 568.837369351701 | epot = 442355.897077015 | erot = 377988.8007828 | etot = 820913.535229167
285  ekin = 568.836225201035 | epot = 442355.898217283 | erot = 377988.666240572 | etot = 820913.400683056
286  ekin = 568.83507707332 | epot = 442355.899361516 | erot = 377988.530955884 | etot = 820913.265394473
287  ekin = 568.833924968213 | epot = 442355.900509711 | erot = 377988.394928477 | etot = 820913.129363156
288  ekin = 568.832768887507 | epot = 442355.90166187 | erot = 377988.258158089 | etot = 820912.992588847
289  ekin = 568.831608830304 | epot = 442355.902817992 | erot = 377988.120644461 | etot = 820912.855071283
290  ekin = 568.830444798399 | epot = 442355.903978076 | erot = 377987.982387333 | etot = 820912.716810207
291  ekin = 568.829276791128 | epot = 442355.905142122 | erot = 377987.843386443 | etot = 820912.577805356
292  ekin = 568.828104809554 | epot = 442355.906310129 | erot = 377987.703641533 | etot = 820912.438056471
293  ekin = 568.826928853826 | epot = 442355.907482097 | erot = 377987.563152342 | etot = 820912.297563293
294  ekin = 568.825748925017 | epot = 442355.908658026 | erot = 377987.421918612 | etot = 820912.156325563
295  ekin = 568.824565023014 | epot = 442355.909837914 | erot = 377987.279940082 | etot = 820912.014343019
296  ekin = 568.823377148659 | epot = 442355.911021763 | erot = 377987.137216494 | etot = 820911.871615405
297  ekin = 568.822185301499 | epot = 442355.91220957 | erot = 377986.993747588 | etot = 820911.728142459
298  ekin = 568.820989483574 | epot = 442355.913401335 | erot = 377986.849533106 | etot = 820911.583923925
299  ekin = 568.819789694249 | epot = 442355.914597059 | erot = 377986.70457279 | etot = 820911.438959543
300  ekin = 568.818585934408 | epot = 442355.91579674 | erot = 377986.55886638 | etot = 820911.293249055
301  ekin = 568.817378204654 | epot = 442355.917000378 | erot = 377986.412413619 | etot = 820911.146792202
302  ekin = 568.816166504745 | epot = 442355.918207973 | erot = 377986.265214248 | etot = 820910.999588726
303  ekin = 568.814950836471 | epot = 442355.919419525 | erot = 377986.11726801 | etot = 820910.851638371
304  ekin = 568.813731199025 | epot = 442355.920635031 | erot = 377985.968574646 | etot = 820910.702940877
305  ekin = 568.812507593952 | epot = 442355.921854493 | erot = 377985.8191339 | etot = 820910.553495988
306  ekin = 568.811280020342 | epot = 442355.92307791 | erot = 377985.668945514 | etot = 820910.403303444
307  ekin = 568.810048480112 | epot = 442355.924305281 | erot = 377985.51800923 | etot = 820910.252362991
308  ekin = 568.808812973877 | epot = 442355.925536605 | erot = 377985.366324792 | etot = 820910.100674371
309  ekin = 568.807573500567 | epot = 442355.926771883 | erot = 377985.213891943 | etot = 820909.948237326
310  ekin = 568.806330061634 | epot = 442355.928011113 | erot = 377985.060710426 | etot = 820909.795051601
311  ekin = 568.80508265833 | epot = 442355.929254296 | erot = 377984.906779984 | etot = 820909.641116939
312  ekin = 568.803831290073 | epot = 442355.93050143 | erot = 377984.752100362 | etot = 820909.486433082
313  ekin = 568.802575957784 | epot = 442355.931752515 | erot = 377984.596671303 | etot = 820909.330999777
314  ekin = 568.801316661576 | epot = 442355.933007551 | erot = 377984.440492552 | etot = 820909.174816765
315  ekin = 568.800053402442 | epot = 442355.934266538 | erot = 377984.283563852 | etot = 820909.017883792
316  ekin = 568.798786181025 | epot = 442355.935529473 | erot = 377984.125884948 | etot = 820908.860200603
317  ekin = 568.797514997399 | epot = 442355.936796358 | erot = 377983.967455585 | etot = 820908.701766941
318  ekin = 568.796239851802 | epot = 442355.938067192 | erot = 377983.808275507 | etot = 820908.542582551
319  ekin = 568.794960745369 | epot = 442355.939341973 | erot = 377983.64834446 | etot = 820908.382647179
320  ekin = 568.79367767873 | epot = 442355.940620703 | erot = 377983.487662188 | etot = 820908.221960569
321  ekin = 568.792390651695 | epot = 442355.941903379 | erot = 377983.326228436 | etot = 820908.060522467
322  ekin = 568.791099665108 | epot = 442355.943190003 | erot = 377983.164042952 | etot = 820907.898332619
323  ekin = 568.789804720024 | epot = 442355.944480572 | erot = 377983.001105479 | etot = 820907.735390771
324  ekin = 568.788505816198 | epot = 442355.945775087 | erot = 377982.837415764 | etot = 820907.571696666
325  ekin = 568.787202955043 | epot = 442355.947073547 | erot = 377982.672973553 | etot = 820907.407250054
326  ekin = 568.785896136069 | epot = 442355.948375951 | erot = 377982.507778592 | etot = 820907.242050678
327  ekin = 568.784585360336 | epot = 442355.949682299 | erot = 377982.341830627 | etot = 820907.076098287
328  ekin = 568.783270627942 | epot = 442355.950992591 | erot = 377982.175129406 | etot = 820906.909392625
329  ekin = 568.78195194045 | epot = 442355.952306826 | erot = 377982.007674674 | etot = 820906.74193344
330  ekin = 568.780629296852 | epot = 442355.953625003 | erot = 377981.83946618 | etot = 820906.573720479
331  ekin = 568.779302698905 | epot = 442355.954947122 | erot = 377981.670503669 | etot = 820906.40475349
332  ekin = 568.777972147117 | epot = 442355.956273183 | erot = 377981.50078689 | etot = 820906.23503222
333  ekin = 568.77663764146 | epot = 442355.957603184 | erot = 377981.330315589 | etot = 820906.064556414
334  ekin = 568.775299183037 | epot = 442355.958937125 | erot = 377981.159089515 | etot = 820905.893325823
335  ekin = 568.773956771878 | epot = 442355.960275006 | erot = 377980.987108415 | etot = 820905.721340193
336  ekin = 568.772610408586 | epot = 442355.961616827 | erot = 377980.814372038 | etot = 820905.548599274
337  ekin = 568.771260093966 | epot = 442355.962962587 | erot = 377980.640880131 | etot = 820905.375102811
338  ekin = 568.769905828033 | epot = 442355.964312284 | erot = 377980.466632443 | etot = 820905.200850555
339  ekin = 568.768547612684 | epot = 442355.965665919 | erot = 377980.291628723 | etot = 820905.025842254
340  ekin = 568.767185446983 | epot = 442355.96702349 | erot = 377980.115868718 | etot = 820904.850077656
341  ekin = 568.76581933197 | epot = 442355.968384999 | erot = 377979.93935218 | etot = 820904.673556511
342  ekin = 568.764449268135 | epot = 442355.969750443 | erot = 377979.762078855 | etot = 820904.496278567
343  ekin = 568.763075256487 | epot = 442355.971119823 | erot = 377979.584048495 | etot = 820904.318243574
344  ekin = 568.761697297031 | epot = 442355.972493138 | erot = 377979.405260847 | etot = 820904.139451282
345  ekin = 568.760315390787 | epot = 442355.973870387 | erot = 377979.225715663 | etot = 820903.95990144
346  ekin = 568.758929537445 | epot = 442355.975251569 | erot = 377979.045412691 | etot = 820903.779593798
347  ekin = 568.757539739307 | epot = 442355.976636685 | erot = 377978.864351682 | etot = 820903.598528106
348  ekin = 568.756145994788 | epot = 442355.978025734 | erot = 377978.682532386 | etot = 820903.416704114
349  ekin = 568.754748306038 | epot = 442355.979418714 | erot = 377978.499954553 | etot = 820903.234121574
350  ekin = 568.75334667298 | epot = 442355.980815626 | erot = 377978.316617935 | etot = 820903.050780234
351  ekin = 568.751941096571 | epot = 442355.982216469 | erot = 377978.132522281 | etot = 820902.866679847
352  ekin = 568.750531576288 | epot = 442355.983621243 | erot = 377977.947667343 | etot = 820902.681820163
353  ekin = 568.749118114143 | epot = 442355.985029947 | erot = 377977.762052872 | etot = 820902.496200933
354  ekin = 568.747700709577 | epot = 442355.98644258 | erot = 377977.575678619 | etot = 820902.309821909
355  ekin = 568.746279364415 | epot = 442355.987859141 | erot = 377977.388544336 | etot = 820902.122682841
356  ekin = 568.744854077871 | epot = 442355.98927963 | erot = 377977.200649774 | etot = 820901.934783483
357  ekin = 568.74342485173 | epot = 442355.990704048 | erot = 377977.011994686 | etot = 820901.746123586
358  ekin = 568.74199168555 | epot = 442355.992132392 | erot = 377976.822578823 | etot = 820901.556702901
359  ekin = 568.740554580323 | epot = 442355.993564662 | erot = 377976.632401938 | etot = 820901.36652118
360  ekin = 568.739113536792 | epot = 442355.995000859 | erot = 377976.441463782 | etot = 820901.175578178
361  ekin = 568.737668555319 | epot = 442355.99644098 | erot = 377976.24976411 | etot = 820900.983873645
362  ekin = 568.736219636195 | epot = 442355.997885027 | erot = 377976.057302672 | etot = 820900.791407335
363  ekin = 568.73476678081 | epot = 442355.999332997 | erot = 377975.864079223 | etot = 820900.598179002
364  ekin = 568.733309989516 | epot = 442356.000784892 | erot = 377975.670093516 | etot = 820900.404188397
365  ekin = 568.731849262692 | epot = 442356.002240708 | erot = 377975.475345304 | etot = 820900.209435275
366  ekin = 568.730384600595 | epot = 442356.003700447 | erot = 377975.27983434 | etot = 820900.013919388
367  ekin = 568.728916003788 | epot = 442356.005164108 | erot = 377975.083560379 | etot = 820899.817640491
368  ekin = 568.727443473872 | epot = 442356.00663169 | erot = 377974.886523173 | etot = 820899.620598337
369  ekin = 568.725967011044 | epot = 442356.008103193 | erot = 377974.688722478 | etot = 820899.422792682
370  ekin = 568.724486615506 | epot = 442356.009578616 | erot = 377974.490158047 | etot = 820899.224223278
371  ekin = 568.723002287534 | epot = 442356.011057958 | erot = 377974.290829635 | etot = 820899.02488988
372  ekin = 568.721514028387 | epot = 442356.012541219 | erot = 377974.090736996 | etot = 820898.824792244
373  ekin = 568.720021838608 | epot = 442356.014028398 | erot = 377973.889879886 | etot = 820898.623930123
374  ekin = 568.718525718896 | epot = 442356.015519495 | erot = 377973.68825806 | etot = 820898.422303274
375  ekin = 568.717025669281 | epot = 442356.017014509 | erot = 377973.485871272 | etot = 820898.21991145
376  ekin = 568.715521690803 | epot = 442356.018513439 | erot = 377973.282719278 | etot = 820898.016754408
377  ekin = 568.714013784549 | epot = 442356.020016286 | erot = 377973.078801833 | etot = 820897.812831904
378  ekin = 568.712501950086 | epot = 442356.021523047 | erot = 377972.874118694 | etot = 820897.608143692
379  ekin = 568.710986188831 | epot = 442356.023033723 | erot = 377972.668669617 | etot = 820897.402689528
380  ekin = 568.709466501152 | epot = 442356.024548313 | erot = 377972.462454356 | etot = 820897.19646917
381  ekin = 568.707942886947 | epot = 442356.026066816 | erot = 377972.255472669 | etot = 820896.989482372
382  ekin = 568.70641534837 | epot = 442356.027589232 | erot = 377972.047724313 | etot = 820896.781728894
383  ekin = 568.704883884874 | epot = 442356.029115561 | erot = 377971.839209043 | etot = 820896.573208489
384  ekin = 568.703348497114 | epot = 442356.030645801 | erot = 377971.629926617 | etot = 820896.363920916
385  ekin = 568.701809185813 | epot = 442356.032179952 | erot = 377971.419876792 | etot = 820896.15386593
386  ekin = 568.700265952439 | epot = 442356.033718013 | erot = 377971.209059325 | etot = 820895.943043291
387  ekin = 568.698718796985 | epot = 442356.035259984 | erot = 377970.997473974 | etot = 820895.731452755
388  ekin = 568.697167719455 | epot = 442356.036805865 | erot = 377970.785120495 | etot = 820895.51909408
389  ekin = 568.695612721447 | epot = 442356.038355653 | erot = 377970.571998648 | etot = 820895.305967023
390  ekin = 568.694053802551 | epot = 442356.03990935 | erot = 377970.358108189 | etot = 820895.092071342
391  ekin = 568.692490965091 | epot = 442356.041466953 | erot = 377970.143448878 | etot = 820894.877406797
392  ekin = 568.690924208233 | epot = 442356.043028464 | erot = 377969.928020472 | etot = 820894.661973144
393  ekin = 568.689353532511 | epot = 442356.04459388 | erot = 377969.71182273 | etot = 820894.445770143
394  ekin = 568.687778939387 | epot = 442356.046163202 | erot = 377969.494855411 | etot = 820894.228797552
395  ekin = 568.686200429621 | epot = 442356.047736428 | erot = 377969.277118273 | etot = 820894.011055131
396  ekin = 568.684618002838 | epot = 442356.049313559 | erot = 377969.058611077 | etot = 820893.792542638
397  ekin = 568.68303166064 | epot = 442356.050894593 | erot = 377968.83933358 | etot = 820893.573259833
398  ekin = 568.681441403358 | epot = 442356.05247953 | erot = 377968.619285543 | etot = 820893.353206476
399  ekin = 568.67984723133 | epot = 442356.054068369 | erot = 377968.398466725 | etot = 820893.132382325
400  ekin = 568.678249145558 | epot = 442356.055661109 | erot = 377968.176876886 | etot = 820892.910787141
401  ekin = 568.676647146554 | epot = 442356.05725775 | erot = 377967.954515787 | etot = 820892.688420684
402  ekin = 568.67504123493 | epot = 442356.058858292 | erot = 377967.731383187 | etot = 820892.465282714
403  ekin = 568.673431411353 | epot = 442356.060462733 | erot = 377967.507478847 | etot = 820892.241372991
404  ekin = 568.671817676342 | epot = 442356.062071073 | erot = 377967.282802527 | etot = 820892.016691276
405  ekin = 568.670200030916 | epot = 442356.063683312 | erot = 377967.057353988 | etot = 820891.791237331
406  ekin = 568.668578476032 | epot = 442356.065299448 | erot = 377966.831132992 | etot = 820891.565010916
407  ekin = 568.666953011818 | epot = 442356.066919482 | erot = 377966.604139299 | etot = 820891.338011793
408  ekin = 568.66532363824 | epot = 442356.068543412 | erot = 377966.376372671 | etot = 820891.110239721
409  ekin = 568.663690357459 | epot = 442356.070171237 | erot = 377966.14783287 | etot = 820890.881694464
410  ekin = 568.662053169009 | epot = 442356.071802958 | erot = 377965.918519656 | etot = 820890.652375783
411  ekin = 568.660412073816 | epot = 442356.073438573 | erot = 377965.688432793 | etot = 820890.422283439
412  ekin = 568.658767072612 | epot = 442356.075078082 | erot = 377965.457572042 | etot = 820890.191417196
413  ekin = 568.657118166583 | epot = 442356.076721484 | erot = 377965.225937165 | etot = 820889.959776815
414  ekin = 568.65546535538 | epot = 442356.078368778 | erot = 377964.993527925 | etot = 820889.727362059
415  ekin = 568.653808640604 | epot = 442356.080019964 | erot = 377964.760344085 | etot = 820889.49417269
416  ekin = 568.652148022286 | epot = 442356.081675042 | erot = 377964.526385407 | etot = 820889.260208471
417  ekin = 568.650483501659 | epot = 442356.083334009 | erot = 377964.291651656 | etot = 820889.025469167
418  ekin = 568.648815078551 | epot = 442356.084996867 | erot = 377964.056142593 | etot = 820888.789954538
419  ekin = 568.647142754137 | epot = 442356.086663614 | erot = 377963.819857982 | etot = 820888.55366435
420  ekin = 568.645466529409 | epot = 442356.08833425 | erot = 377963.582797587 | etot = 820888.316598366
421  ekin = 568.643786404954 | epot = 442356.090008773 | erot = 377963.344961172 | etot = 820888.07875635
422  ekin = 568.642102380848 | epot = 442356.091687183 | erot = 377963.106348501 | etot = 820887.840138066
423  ekin = 568.640414458461 | epot = 442356.09336948 | erot = 377962.866959338 | etot = 820887.600743277
424  ekin = 568.638722637865 | epot = 442356.095055662 | erot = 377962.626793448 | etot = 820887.360571747
425  ekin = 568.637026920324 | epot = 442356.096745729 | erot = 377962.385850594 | etot = 820887.119623244
426  ekin = 568.635327306486 | epot = 442356.098439681 | erot = 377962.144130543 | etot = 820886.87789753
427  ekin = 568.633623796316 | epot = 442356.100137517 | erot = 377961.901633058 | etot = 820886.635394371
428  ekin = 568.631916391308 | epot = 442356.101839235 | erot = 377961.658357905 | etot = 820886.392113531
429  ekin = 568.630205091779 | epot = 442356.103544836 | erot = 377961.414304849 | etot = 820886.148054777
430  ekin = 568.628489898789 | epot = 442356.105254319 | erot = 377961.169473656 | etot = 820885.903217874
431  ekin = 568.626770812598 | epot = 442356.106967683 | erot = 377960.923864092 | etot = 820885.657602587
432  ekin = 568.625047833913 | epot = 442356.108684927 | erot = 377960.677475922 | etot = 820885.411208683
433  ekin = 568.623320963612 | epot = 442356.110406051 | erot = 377960.430308913 | etot = 820885.164035927
434  ekin = 568.621590201882 | epot = 442356.112131053 | erot = 377960.18236283 | etot = 820884.916084085
435  ekin = 568.619855550506 | epot = 442356.113859934 | erot = 377959.933637441 | etot = 820884.667352926
436  ekin = 568.618117009393 | epot = 442356.115592693 | erot = 377959.684132512 | etot = 820884.417842214
437  ekin = 568.616374579246 | epot = 442356.117329328 | erot = 377959.43384781 | etot = 820884.167551717
438  ekin = 568.61462826112 | epot = 442356.11906984 | erot = 377959.182783102 | etot = 820883.916481203
439  ekin = 568.612878055618 | epot = 442356.120814227 | erot = 377958.930938155 | etot = 820883.664630437
440  ekin = 568.611123963358 | epot = 442356.122562489 | erot = 377958.678312736 | etot = 820883.411999189
441  ekin = 568.609365984679 | epot = 442356.124314625 | erot = 377958.424906615 | etot = 820883.158587225
442  ekin = 568.607604121191 | epot = 442356.126070635 | erot = 377958.170719557 | etot = 820882.904394313
443  ekin = 568.605838373107 | epot = 442356.127830517 | erot = 377957.915751331 | etot = 820882.649420221
444  ekin = 568.604068740688 | epot = 442356.129594271 | erot = 377957.660001706 | etot = 820882.393664718
445  ekin = 568.602295225144 | epot = 442356.131361896 | erot = 377957.40347045 | etot = 820882.137127571
446  ekin = 568.600517827629 | epot = 442356.133133392 | erot = 377957.146157331 | etot = 820881.879808551
447  ekin = 568.598736547688 | epot = 442356.134908758 | erot = 377956.888062118 | etot = 820881.621707424
448  ekin = 568.596951387624 | epot = 442356.136687993 | erot = 377956.629184581 | etot = 820881.362823961
449  ekin = 568.595162346599 | epot = 442356.138471096 | erot = 377956.369524488 | etot = 820881.10315793
450  ekin = 568.593369426421 | epot = 442356.140258067 | erot = 377956.109081608 | etot = 820880.842709101
451  ekin = 568.591572627114 | epot = 442356.142048904 | erot = 377955.847855712 | etot = 820880.581477244
452  ekin = 568.589771949805 | epot = 442356.143843608 | erot = 377955.585846569 | etot = 820880.319462127
453  ekin = 568.587967395245 | epot = 442356.145642178 | erot = 377955.323053949 | etot = 820880.056663522
454  ekin = 568.586158963478 | epot = 442356.147444613 | erot = 377955.059477622 | etot = 820879.793081198
455  ekin = 568.584346656623 | epot = 442356.149250912 | erot = 377954.795117358 | etot = 820879.528714926
456  ekin = 568.582530473546 | epot = 442356.151061074 | erot = 377954.529972929 | etot = 820879.263564476
457  ekin = 568.580710416762 | epot = 442356.152875099 | erot = 377954.264044104 | etot = 820878.997629619
458  ekin = 568.578886485929 | epot = 442356.154692985 | erot = 377953.997330654 | etot = 820878.730910125
459  ekin = 568.57705868242 | epot = 442356.156514732 | erot = 377953.729832352 | etot = 820878.463405767
460  ekin = 568.575227006902 | epot = 442356.158340341 | erot = 377953.461548967 | etot = 820878.195116315
461  ekin = 568.573391458791 | epot = 442356.160169808 | erot = 377953.192480272 | etot = 820877.926041539
462  ekin = 568.571552040986 | epot = 442356.162003135 | erot = 377952.922626038 | etot = 820877.656181214
463  ekin = 568.569708752361 | epot = 442356.163840321 | erot = 377952.651986037 | etot = 820877.38553511
464  ekin = 568.567861595533 | epot = 442356.165681363 | erot = 377952.380560041 | etot = 820877.114103
465  ekin = 568.566010569403 | epot = 442356.167526263 | erot = 377952.108347822 | etot = 820876.841884654
466  ekin = 568.564155675332 | epot = 442356.169375018 | erot = 377951.835349153 | etot = 820876.568879847
467  ekin = 568.562296914619 | epot = 442356.17122763 | erot = 377951.561563807 | etot = 820876.295088351
468  ekin = 568.560434287885 | epot = 442356.173084095 | erot = 377951.286991556 | etot = 820876.020509939
469  ekin = 568.558567795169 | epot = 442356.174944414 | erot = 377951.011632173 | etot = 820875.745144383
470  ekin = 568.556697437791 | epot = 442356.176808587 | erot = 377950.735485432 | etot = 820875.468991457
471  ekin = 568.554823216685 | epot = 442356.178676612 | erot = 377950.458551106 | etot = 820875.192050935
472  ekin = 568.552945131646 | epot = 442356.180548488 | erot = 377950.180828969 | etot = 820874.914322588
473  ekin = 568.551063184562 | epot = 442356.182424215 | erot = 377949.902318794 | etot = 820874.635806193
474  ekin = 568.549177375966 | epot = 442356.184303792 | erot = 377949.623020355 | etot = 820874.356501523
475  ekin = 568.547287705779 | epot = 442356.186187219 | erot = 377949.342933427 | etot = 820874.076408352
476  ekin = 568.545394175724 | epot = 442356.188074494 | erot = 377949.062057784 | etot = 820873.795526454
477  ekin = 568.543496786562 | epot = 442356.189965618 | erot = 377948.7803932 | etot = 820873.513855605
478  ekin = 568.541595538392 | epot = 442356.191860588 | erot = 377948.497939451 | etot = 820873.231395577
479  ekin = 568.539690432541 | epot = 442356.193759404 | erot = 377948.214696312 | etot = 820872.948146148
480  ekin = 568.53778146923 | epot = 442356.195662066 | erot = 377947.930663557 | etot = 820872.664107092
481  ekin = 568.535868649642 | epot = 442356.197568573 | erot = 377947.645840962 | etot = 820872.379278184
482  ekin = 568.533951974476 | epot = 442356.199478924 | erot = 377947.360228302 | etot = 820872.0936592
483  ekin = 568.532031444403 | epot = 442356.201393118 | erot = 377947.073825354 | etot = 820871.807249916
484  ekin = 568.530107061199 | epot = 442356.203311154 | erot = 377946.786631892 | etot = 820871.520050108
485  ekin = 568.528178823448 | epot = 442356.205233032 | erot = 377946.498647695 | etot = 820871.23205955
486  ekin = 568.526246734271 | epot = 442356.207158751 | erot = 377946.209872537 | etot = 820870.943278022
487  ekin = 568.524310792508 | epot = 442356.209088311 | erot = 377945.920306195 | etot = 820870.653705298
488  ekin = 568.522371000294 | epot = 442356.211021709 | erot = 377945.629948446 | etot = 820870.363341155
489  ekin = 568.520427358534 | epot = 442356.212958946 | erot = 377945.338799067 | etot = 820870.072185372
490  ekin = 568.518479866573 | epot = 442356.214900022 | erot = 377945.046857835 | etot = 820869.780237724
491  ekin = 568.516528526609 | epot = 442356.216844934 | erot = 377944.754124528 | etot = 820869.487497988
492  ekin = 568.514573338232 | epot = 442356.218793682 | erot = 377944.460598922 | etot = 820869.193965943
493  ekin = 568.512614302745 | epot = 442356.220746266 | erot = 377944.166280796 | etot = 820868.899641365
494  ekin = 568.510651421856 | epot = 442356.222702685 | erot = 377943.871169928 | etot = 820868.604524035
495  ekin = 568.508684695011 | epot = 442356.224662938 | erot = 377943.575266095 | etot = 820868.308613728
496  ekin = 568.506714123882 | epot = 442356.226627024 | erot = 377943.278569076 | etot = 820868.011910224
497  ekin = 568.504739708761 | epot = 442356.228594942 | erot = 377942.98107865 | etot = 820867.714413301
498  ekin = 568.502761450467 | epot = 442356.230566692 | erot = 377942.682794594 | etot = 820867.416122737
499  ekin = 568.500779349706 | epot = 442356.232542273 | erot = 377942.383716689 | etot = 820867.117038312
500  ekin = 568.498793408571 | epot = 442356.234521683 | erot = 377942.083844713 | etot = 820866.817159805
501  ekin = 568.496803626192 | epot = 442356.236504923 | erot = 377941.783178446 | etot = 820866.516486995
502  ekin = 568.49481000439 | epot = 442356.238491992 | erot = 377941.481717666 | etot = 820866.215019662
503  ekin = 568.492812543123 | epot = 442356.240482888 | erot = 377941.179462154 | etot = 820865.912757585
504  ekin = 568.490811243742 | epot = 442356.242477611 | erot = 377940.876411689 | etot = 820865.609700543
505  ekin = 568.488806107357 | epot = 442356.24447616 | erot = 377940.572566052 | etot = 820865.305848319
506  ekin = 568.486797134084 | epot = 442356.246478534 | erot = 377940.267925023 | etot = 820865.001200691
507  ekin = 568.484784325025 | epot = 442356.248484733 | erot = 377939.962488382 | etot = 820864.695757439
508  ekin = 568.482767680766 | epot = 442356.250494755 | erot = 377939.65625591 | etot = 820864.389518345
509  ekin = 568.480747202817 | epot = 442356.2525086 | erot = 377939.349227387 | etot = 820864.08248319
510  ekin = 568.478722891624 | epot = 442356.254526267 | erot = 377939.041402596 | etot = 820863.774651755
511  ekin = 568.476694747666 | epot = 442356.256547755 | erot = 377938.732781317 | etot = 820863.46602382
512  ekin = 568.474662772205 | epot = 442356.258573064 | erot = 377938.423363331 | etot = 820863.156599168
513  ekin = 568.472626966046 | epot = 442356.260602193 | erot = 377938.113148421 | etot = 820862.846377579
514  ekin = 568.470587329512 | epot = 442356.26263514 | erot = 377937.802136368 | etot = 820862.535358837
515  ekin = 568.468543863672 | epot = 442356.264671905 | erot = 377937.490326954 | etot = 820862.223542722
516  ekin = 568.466496569723 | epot = 442356.266712487 | erot = 377937.177719961 | etot = 820861.910929018
517  ekin = 568.464445448325 | epot = 442356.268756886 | erot = 377936.864315172 | etot = 820861.597517507
518  ekin = 568.462390500067 | epot = 442356.2708051 | erot = 377936.55011237 | etot = 820861.283307971
519  ekin = 568.46033172574 | epot = 442356.272857129 | erot = 377936.235111337 | etot = 820860.968300192
520  ekin = 568.458269126244 | epot = 442356.274912971 | erot = 377935.919311857 | etot = 820860.652493954
521  ekin = 568.456202703093 | epot = 442356.276972627 | erot = 377935.602713712 | etot = 820860.335889042
522  ekin = 568.454132456232 | epot = 442356.279036095 | erot = 377935.285316686 | etot = 820860.018485238
523  ekin = 568.452058386745 | epot = 442356.281103375 | erot = 377934.967120563 | etot = 820859.700282325
524  ekin = 568.4499804954 | epot = 442356.283174464 | erot = 377934.648125127 | etot = 820859.381280086
525  ekin = 568.447898784191 | epot = 442356.285249364 | erot = 377934.328330161 | etot = 820859.061478309
526  ekin = 568.445813252008 | epot = 442356.287328073 | erot = 377934.00773545 | etot = 820858.740876775
527  ekin = 568.443723900114 | epot = 442356.28941059 | erot = 377933.686340778 | etot = 820858.419475268
528  ekin = 568.441630730678 | epot = 442356.291496914 | erot = 377933.36414593 | etot = 820858.097273575
529  ekin = 568.439533743411 | epot = 442356.293587044 | erot = 377933.041150691 | etot = 820857.774271479
530  ekin = 568.43743293957 | epot = 442356.29568098 | erot = 377932.717354846 | etot = 820857.450468765
531  ekin = 568.435328319693 | epot = 442356.297778721 | erot = 377932.392758179 | etot = 820857.12586522
532  ekin = 568.433219885438 | epot = 442356.299880266 | erot = 377932.067360477 | etot = 820856.800460628
533  ekin = 568.431107636376 | epot = 442356.301985613 | erot = 377931.741161525 | etot = 820856.474254775
534  ekin = 568.428991573935 | epot = 442356.304094763 | erot = 377931.414161109 | etot = 820856.147247447
535  ekin = 568.426871699905 | epot = 442356.306207715 | erot = 377931.086359015 | etot = 820855.81943843
536  ekin = 568.42474801378 | epot = 442356.308324467 | erot = 377930.757755029 | etot = 820855.49082751
537  ekin = 568.422620516612 | epot = 442356.310445018 | erot = 377930.428348938 | etot = 820855.161414473
538  ekin = 568.420489210062 | epot = 442356.312569368 | erot = 377930.098140528 | etot = 820854.831199106
539  ekin = 568.418354094637 | epot = 442356.314697517 | erot = 377929.767129586 | etot = 820854.500181197
540  ekin = 568.416215171431 | epot = 442356.316829463 | erot = 377929.435315899 | etot = 820854.168360533
541  ekin = 568.414072440098 | epot = 442356.318965205 | erot = 377929.102699254 | etot = 820853.835736899
542  ekin = 568.411925902812 | epot = 442356.321104743 | erot = 377928.769279439 | etot = 820853.502310084
543  ekin = 568.409775560124 | epot = 442356.323248075 | erot = 377928.435056241 | etot = 820853.168079876
544  ekin = 568.407621413221 | epot = 442356.325395201 | erot = 377928.100029448 | etot = 820852.833046062
545  ekin = 568.405463461549 | epot = 442356.327546119 | erot = 377927.764198849 | etot = 820852.49720843
546  ekin = 568.40330170768 | epot = 442356.32970083 | erot = 377927.427564231 | etot = 820852.160566769
547  ekin = 568.401136151343 | epot = 442356.331859332 | erot = 377927.090125383 | etot = 820851.823120866
548  ekin = 568.398966793538 | epot = 442356.334021624 | erot = 377926.751882093 | etot = 820851.484870511
549  ekin = 568.396793636139 | epot = 442356.336187706 | erot = 377926.412834151 | etot = 820851.145815492
550  ekin = 568.394616678744 | epot = 442356.338357576 | erot = 377926.072981345 | etot = 820850.805955599
551  ekin = 568.392435923079 | epot = 442356.340531233 | erot = 377925.732323465 | etot = 820850.465290621
552  ekin = 568.390251369778 | epot = 442356.342708678 | erot = 377925.390860299 | etot = 820850.123820347
553  ekin = 568.388063019872 | epot = 442356.344889909 | erot = 377925.048591639 | etot = 820849.781544568
554  ekin = 568.385870873588 | epot = 442356.347074925 | erot = 377924.705517273 | etot = 820849.438463071
555  ekin = 568.383674932942 | epot = 442356.349263724 | erot = 377924.361636991 | etot = 820849.094575648
556  ekin = 568.381475197443 | epot = 442356.351456308 | erot = 377924.016950584 | etot = 820848.749882089
557  ekin = 568.379271669089 | epot = 442356.353652673 | erot = 377923.671457843 | etot = 820848.404382185
558  ekin = 568.377064347971 | epot = 442356.355852821 | erot = 377923.325158557 | etot = 820848.058075726
559  ekin = 568.374853235988 | epot = 442356.358056748 | erot = 377922.978052518 | etot = 820847.710962503
560  ekin = 568.372638333519 | epot = 442356.360264456 | erot = 377922.630139517 | etot = 820847.363042307
561  ekin = 568.370419641002 | epot = 442356.362475943 | erot = 377922.281419345 | etot = 820847.014314929
562  ekin = 568.368197159806 | epot = 442356.364691208 | erot = 377921.931891793 | etot = 820846.664780161
563  ekin = 568.365970890639 | epot = 442356.36691025 | erot = 377921.581556653 | etot = 820846.314437794
564  ekin = 568.363740834476 | epot = 442356.369133068 | erot = 377921.230413718 | etot = 820845.963287621
565  ekin = 568.361506992389 | epot = 442356.371359662 | erot = 377920.878462778 | etot = 820845.611329432
566  ekin = 568.359269365198 | epot = 442356.37359003 | erot = 377920.525703627 | etot = 820845.258563022
567  ekin = 568.357027953381 | epot = 442356.375824172 | erot = 377920.172136057 | etot = 820844.904988182
568  ekin = 568.354782758326 | epot = 442356.378062086 | erot = 377919.817759859 | etot = 820844.550604704
569  ekin = 568.35253378064 | epot = 442356.380303773 | erot = 377919.462574829 | etot = 820844.195412382
570  ekin = 568.350281021851 | epot = 442356.38254923 | erot = 377919.106580757 | etot = 820843.839411009
571  ekin = 568.348024481857 | epot = 442356.384798457 | erot = 377918.749777439 | etot = 820843.482600378
572  ekin = 568.345764162299 | epot = 442356.387051454 | erot = 377918.392164666 | etot = 820843.124980282
573  ekin = 568.343500064173 | epot = 442356.389308218 | erot = 377918.033742233 | etot = 820842.766550515
574  ekin = 568.341232187658 | epot = 442356.39156875 | erot = 377917.674509934 | etot = 820842.407310872
575  ekin = 568.33896053433 | epot = 442356.393833048 | erot = 377917.314467562 | etot = 820842.047261145
576  ekin = 568.336685105374 | epot = 442356.396101112 | erot = 377916.953614913 | etot = 820841.686401131
577  ekin = 568.334405900568 | epot = 442356.398372941 | erot = 377916.59195178 | etot = 820841.324730622
578  ekin = 568.332122921767 | epot = 442356.400648534 | erot = 377916.229477958 | etot = 820840.962249414
579  ekin = 568.329836169643 | epot = 442356.402927889 | erot = 377915.866193243 | etot = 820840.598957302
580  ekin = 568.327545644799 | epot = 442356.405211006 | erot = 377915.502097429 | etot = 820840.23485408
581  ekin = 568.325251348887 | epot = 442356.407497885 | erot = 377915.137190311 | etot = 820839.869939544
582  ekin = 568.322953282229 | epot = 442356.409788523 | erot = 377914.771471685 | etot = 820839.50421349
583  ekin = 568.320651446117 | epot = 442356.41208292 | erot = 377914.404941347 | etot = 820839.137675713
584  ekin = 568.318345840695 | epot = 442356.414381075 | erot = 377914.037599093 | etot = 820838.770326008
585  ekin = 568.316036468181 | epot = 442356.416682988 | erot = 377913.669444718 | etot = 820838.402164174
586  ekin = 568.313723327924 | epot = 442356.418988657 | erot = 377913.30047802 | etot = 820838.033190005
587  ekin = 568.311406422889 | epot = 442356.421298082 | erot = 377912.930698794 | etot = 820837.663403298
588  ekin = 568.309085752468 | epot = 442356.423611261 | erot = 377912.560106837 | etot = 820837.292803851
589  ekin = 568.306761317794 | epot = 442356.425928193 | erot = 377912.188701947 | etot = 820836.921391458
590  ekin = 568.304433120216 | epot = 442356.428248879 | erot = 377911.81648392 | etot = 820836.54916592
591  ekin = 568.302101160012 | epot = 442356.430573317 | erot = 377911.443452554 | etot = 820836.176127031
592  ekin = 568.299765438943 | epot = 442356.432901505 | erot = 377911.069607647 | etot = 820835.802274591
593  ekin = 568.297425957311 | epot = 442356.435233443 | erot = 377910.694948995 | etot = 820835.427608396
594  ekin = 568.295082716375 | epot = 442356.43756913 | erot = 377910.319476398 | etot = 820835.052128244
595  ekin = 568.292735717172 | epot = 442356.439908566 | erot = 377909.943189652 | etot = 820834.675833935
596  ekin = 568.290384959994 | epot = 442356.442251749 | erot = 377909.566088557 | etot = 820834.298725266
597  ekin = 568.288030447042 | epot = 442356.444598677 | erot = 377909.188172912 | etot = 820833.920802036
598  ekin = 568.28567217871 | epot = 442356.446949351 | erot = 377908.809442514 | etot = 820833.542064044
599  ekin = 568.283310155314 | epot = 442356.449303769 | erot = 377908.429897163 | etot = 820833.162511088
600  ekin = 568.280944377651 | epot = 442356.451661931 | erot = 377908.049536658 | etot = 820832.782142967
601  ekin = 568.278574847785 | epot = 442356.454023835 | erot = 377907.668360799 | etot = 820832.400959482
602  ekin = 568.276201566432 | epot = 442356.456389481 | erot = 377907.286369385 | etot = 820832.018960432
603  ekin = 568.273824534072 | epot = 442356.458758867 | erot = 377906.903562215 | etot = 820831.636145616
604  ekin = 568.271443751672 | epot = 442356.461131993 | erot = 377906.51993909 | etot = 820831.252514835
605  ekin = 568.269059220351 | epot = 442356.463508857 | erot = 377906.135499811 | etot = 820830.868067889
606  ekin = 568.266670940889 | epot = 442356.46588946 | erot = 377905.750244177 | etot = 820830.482804578
607  ekin = 568.264278915039 | epot = 442356.468273799 | erot = 377905.364171989 | etot = 820830.096724703
608  ekin = 568.261883143569 | epot = 442356.470661873 | erot = 377904.977283048 | etot = 820829.709828065
609  ekin = 568.259483625892 | epot = 442356.473053683 | erot = 377904.589577155 | etot = 820829.322114464
610  ekin = 568.2570803648 | epot = 442356.475449227 | erot = 377904.201054112 | etot = 820828.933583703
611  ekin = 568.254673360374 | epot = 442356.477848503 | erot = 377903.811713719 | etot = 820828.544235582
612  ekin = 568.252262614297 | epot = 442356.480251512 | erot = 377903.421555778 | etot = 820828.154069904
613  ekin = 568.249848126036 | epot = 442356.482658252 | erot = 377903.030580091 | etot = 820827.763086469
614  ekin = 568.247429898395 | epot = 442356.485068721 | erot = 377902.638786461 | etot = 820827.371285081
615  ekin = 568.245007931292 | epot = 442356.48748292 | erot = 377902.246174689 | etot = 820826.978665541
616  ekin = 568.242582226161 | epot = 442356.489900848 | erot = 377901.852744578 | etot = 820826.585227652
617  ekin = 568.240152783514 | epot = 442356.492322502 | erot = 377901.458495931 | etot = 820826.190971217
618  ekin = 568.237719605009 | epot = 442356.494747883 | erot = 377901.063428551 | etot = 820825.795896039
619  ekin = 568.235282690282 | epot = 442356.497176989 | erot = 377900.66754224 | etot = 820825.400001919
620  ekin = 568.232842042096 | epot = 442356.499609819 | erot = 377900.270836802 | etot = 820825.003288663
621  ekin = 568.230397659867 | epot = 442356.502046372 | erot = 377899.873312041 | etot = 820824.605756073
622  ekin = 568.227949545528 | epot = 442356.504486648 | erot = 377899.47496776 | etot = 820824.207403953
623  ekin = 568.225497699873 | epot = 442356.506930645 | erot = 377899.075803763 | etot = 820823.808232107
624  ekin = 568.223042124334 | epot = 442356.509378363 | erot = 377898.675819854 | etot = 820823.408240341
625  ekin = 568.22058281927 | epot = 442356.5118298 | erot = 377898.275015838 | etot = 820823.007428456
626  ekin = 568.218119785001 | epot = 442356.514284955 | erot = 377897.873391519 | etot = 820822.605796259
627  ekin = 568.215653023366 | epot = 442356.516743828 | erot = 377897.470946701 | etot = 820822.203343553
628  ekin = 568.213182535534 | epot = 442356.519206418 | erot = 377897.067681191 | etot = 820821.800070144
629  ekin = 568.210708322552 | epot = 442356.521672723 | erot = 377896.663594793 | etot = 820821.395975838
630  ekin = 568.208230384776 | epot = 442356.524142742 | erot = 377896.258687312 | etot = 820820.991060439
631  ekin = 568.20574872411 | epot = 442356.526616475 | erot = 377895.852958554 | etot = 820820.585323753
632  ekin = 568.203263340664 | epot = 442356.52909392 | erot = 377895.446408325 | etot = 820820.178765586
633  ekin = 568.200774235818 | epot = 442356.531575078 | erot = 377895.039036431 | etot = 820819.771385744
634  ekin = 568.198281410104 | epot = 442356.534059946 | erot = 377894.630842677 | etot = 820819.363184033
635  ekin = 568.195784865502 | epot = 442356.536548523 | erot = 377894.221826871 | etot = 820818.95416026
636  ekin = 568.193284601945 | epot = 442356.539040809 | erot = 377893.811988819 | etot = 820818.54431423
637  ekin = 568.190780621033 | epot = 442356.541536802 | erot = 377893.401328328 | etot = 820818.133645752
638  ekin = 568.188272924289 | epot = 442356.544036503 | erot = 377892.989845205 | etot = 820817.722154632
639  ekin = 568.185761511788 | epot = 442356.546539908 | erot = 377892.577539257 | etot = 820817.309840677
640  ekin = 568.183246383988 | epot = 442356.549047019 | erot = 377892.164410291 | etot = 820816.896703694
641  ekin = 568.180727543954 | epot = 442356.551557833 | erot = 377891.750458116 | etot = 820816.482743492
642  ekin = 568.178204991359 | epot = 442356.554072349 | erot = 377891.335682539 | etot = 820816.067959879
643  ekin = 568.175678726927 | epot = 442356.556590568 | erot = 377890.920083367 | etot = 820815.652352662
644  ekin = 568.17314875263 | epot = 442356.559112487 | erot = 377890.503660411 | etot = 820815.23592165
645  ekin = 568.170615068799 | epot = 442356.561638105 | erot = 377890.086413477 | etot = 820814.818666652
646  ekin = 568.168077676548 | epot = 442356.564167423 | erot = 377889.668342375 | etot = 820814.400587475
647  ekin = 568.165536576799 | epot = 442356.566700438 | erot = 377889.249446914 | etot = 820813.981683929
648  ekin = 568.162991771228 | epot = 442356.56923715 | erot = 377888.829726902 | etot = 820813.561955823
649  ekin = 568.160443260098 | epot = 442356.571777557 | erot = 377888.40918215 | etot = 820813.141402967
650  ekin = 568.157891045002 | epot = 442356.574321659 | erot = 377887.987812466 | etot = 820812.72002517
651  ekin = 568.155335126575 | epot = 442356.576869453 | erot = 377887.56561766 | etot = 820812.29782224
652  ekin = 568.152775505747 | epot = 442356.579420941 | erot = 377887.142597543 | etot = 820811.87479399
653  ekin = 568.150212183905 | epot = 442356.58197612 | erot = 377886.718751924 | etot = 820811.450940229
654  ekin = 568.147645161765 | epot = 442356.58453499 | erot = 377886.294080614 | etot = 820811.026260766
655  ekin = 568.145074441176 | epot = 442356.587097549 | erot = 377885.868583424 | etot = 820810.600755414
656  ekin = 568.142500022084 | epot = 442356.589663797 | erot = 377885.442260163 | etot = 820810.174423982
657  ekin = 568.139921906219 | epot = 442356.592233732 | erot = 377885.015110644 | etot = 820809.747266283
658  ekin = 568.137340093823 | epot = 442356.594807354 | erot = 377884.587134677 | etot = 820809.319282125
659  ekin = 568.13475458697 | epot = 442356.597384661 | erot = 377884.158332075 | etot = 820808.890471322
660  ekin = 568.132165386203 | epot = 442356.599965652 | erot = 377883.728702647 | etot = 820808.460833685
661  ekin = 568.129572492786 | epot = 442356.602550327 | erot = 377883.298246207 | etot = 820808.030369027
662  ekin = 568.126975906843 | epot = 442356.605138684 | erot = 377882.866962567 | etot = 820807.599077158
663  ekin = 568.12437563007 | epot = 442356.607730723 | erot = 377882.434851538 | etot = 820807.166957891
664  ekin = 568.121771663872 | epot = 442356.610326442 | erot = 377882.001912933 | etot = 820806.734011039
665  ekin = 568.119164009403 | epot = 442356.612925839 | erot = 377881.568146565 | etot = 820806.300236414
666  ekin = 568.116552667058 | epot = 442356.615528916 | erot = 377881.133552247 | etot = 820805.86563383
667  ekin = 568.113937637925 | epot = 442356.618135669 | erot = 377880.698129792 | etot = 820805.430203099
668  ekin = 568.111318923435 | epot = 442356.620746099 | erot = 377880.261879013 | etot = 820804.993944035
669  ekin = 568.108696524071 | epot = 442356.623360203 | erot = 377879.824799724 | etot = 820804.556856451
670  ekin = 568.106070442257 | epot = 442356.625977981 | erot = 377879.386891738 | etot = 820804.118940161
671  ekin = 568.103440676983 | epot = 442356.628599433 | erot = 377878.948154869 | etot = 820803.680194979
672  ekin = 568.100807230711 | epot = 442356.631224557 | erot = 377878.508588932 | etot = 820803.240620719
673  ekin = 568.098170104145 | epot = 442356.633853351 | erot = 377878.068193741 | etot = 820802.800217196
674  ekin = 568.095529298674 | epot = 442356.636485815 | erot = 377877.62696911 | etot = 820802.358984224
675  ekin = 568.092884814574 | epot = 442356.639121949 | erot = 377877.184914855 | etot = 820801.916921618
676  ekin = 568.090236653749 | epot = 442356.64176175 | erot = 377876.742030789 | etot = 820801.474029193
677  ekin = 568.087584816849 | epot = 442356.644405217 | erot = 377876.29831673 | etot = 820801.030306764
678  ekin = 568.084929305329 | epot = 442356.64705235 | erot = 377875.853772491 | etot = 820800.585754147
679  ekin = 568.082270119861 | epot = 442356.649703148 | erot = 377875.408397889 | etot = 820800.140371157
680  ekin = 568.079607260868 | epot = 442356.65235761 | erot = 377874.962192739 | etot = 820799.69415761
681  ekin = 568.076940730045 | epot = 442356.655015734 | erot = 377874.515156858 | etot = 820799.247113322
682  ekin = 568.074270529524 | epot = 442356.657677519 | erot = 377874.067290062 | etot = 820798.79923811
683  ekin = 568.07159665852 | epot = 442356.660342965 | erot = 377873.618592166 | etot = 820798.35053179
684  ekin = 568.068919119312 | epot = 442356.66301207 | erot = 377873.169062989 | etot = 820797.900994178
685  ekin = 568.066237912677 | epot = 442356.665684834 | erot = 377872.718702346 | etot = 820797.450625092
686  ekin = 568.06355303954 | epot = 442356.668361255 | erot = 377872.267510056 | etot = 820796.99942435
687  ekin = 568.060864501482 | epot = 442356.671041332 | erot = 377871.815485934 | etot = 820796.547391767
688  ekin = 568.05817229848 | epot = 442356.673725064 | erot = 377871.3626298 | etot = 820796.094527162
689  ekin = 568.055476432805 | epot = 442356.676412449 | erot = 377870.90894147 | etot = 820795.640830352
690  ekin = 568.052776905644 | epot = 442356.679103488 | erot = 377870.454420762 | etot = 820795.186301156
691  ekin = 568.050073716312 | epot = 442356.681798179 | erot = 377869.999067496 | etot = 820794.730939391
692  ekin = 568.047366867608 | epot = 442356.68449652 | erot = 377869.542881488 | etot = 820794.274744876
693  ekin = 568.044656360147 | epot = 442356.687198512 | erot = 377869.085862558 | etot = 820793.81771743
694  ekin = 568.041942195223 | epot = 442356.689904152 | erot = 377868.628010525 | etot = 820793.359856872
695  ekin = 568.039224373405 | epot = 442356.692613439 | erot = 377868.169325207 | etot = 820792.90116302
696  ekin = 568.036502895785 | epot = 442356.695326373 | erot = 377867.709806424 | etot = 820792.441635693
[...]
836  ekin = 567.619948782424 | epot = 442357.110602058 | erot = 377795.070014665 | etot = 820719.800565505
837  ekin = 567.616723458625 | epot = 442357.113817713 | erot = 377794.49127043 | etot = 820719.221811601
838  ekin = 567.61349464877 | epot = 442357.117036847 | erot = 377793.911669257 | etot = 820718.642200753
839  ekin = 567.610262352452 | epot = 442357.12025946 | erot = 377793.331210995 | etot = 820718.061732808
840  ekin = 567.607026572772 | epot = 442357.123485551 | erot = 377792.749895496 | etot = 820717.480407619
841  ekin = 567.60378731017 | epot = 442357.126715117 | erot = 377792.16772261 | etot = 820716.898225036
842  ekin = 567.60054456613 | epot = 442357.129948158 | erot = 377791.584692188 | etot = 820716.315184911
843  ekin = 567.597298342229 | epot = 442357.133184672 | erot = 377791.000804082 | etot = 820715.731287095
844  ekin = 567.594048639378 | epot = 442357.136424658 | erot = 377790.416058143 | etot = 820715.14653144
845  ekin = 567.590795458812 | epot = 442357.139668115 | erot = 377789.830454222 | etot = 820714.560917796
846  ekin = 567.587538801778 | epot = 442357.142915041 | erot = 377789.243992173 | etot = 820713.974446016
847  ekin = 567.584278670276 | epot = 442357.146165436 | erot = 377788.656671846 | etot = 820713.387115952
848  ekin = 567.581015065402 | epot = 442357.149419297 | erot = 377788.068493095 | etot = 820712.798927458
849  ekin = 567.577747987782 | epot = 442357.152676624 | erot = 377787.479455772 | etot = 820712.209880384
850  ekin = 567.574477439363 | epot = 442357.155937415 | erot = 377786.88955973 | etot = 820711.619974585
851  ekin = 567.571203420914 | epot = 442357.15920167 | erot = 377786.298804821 | etot = 820711.029209912
852  ekin = 567.5679259337 | epot = 442357.162469386 | erot = 377785.7071909 | etot = 820710.43758622
853  ekin = 567.564644980083 | epot = 442357.165740563 | erot = 377785.11471782 | etot = 820709.845103363
854  ekin = 567.561360560814 | epot = 442357.169015199 | erot = 377784.521385434 | etot = 820709.251761194
855  ekin = 567.558072676161 | epot = 442357.172293293 | erot = 377783.927193596 | etot = 820708.657559566
856  ekin = 567.554781328617 | epot = 442357.175574844 | erot = 377783.332142161 | etot = 820708.062498334
857  ekin = 567.551486519151 | epot = 442357.178859851 | erot = 377782.736230983 | etot = 820707.466577353
858  ekin = 567.548188249938 | epot = 442357.182148311 | erot = 377782.139459917 | etot = 820706.869796477
859  ekin = 567.544886520605 | epot = 442357.185440224 | erot = 377781.541828817 | etot = 820706.272155561
860  ekin = 567.541581332851 | epot = 442357.188735588 | erot = 377780.943337539 | etot = 820705.67365446
861  ekin = 567.538272689458 | epot = 442357.192034403 | erot = 377780.343985938 | etot = 820705.07429303
862  ekin = 567.53496059067 | epot = 442357.195336666 | erot = 377779.743773869 | etot = 820704.474071126
863  ekin = 567.531645036867 | epot = 442357.198642377 | erot = 377779.142701189 | etot = 820703.872988602
864  ekin = 567.52832603127 | epot = 442357.201951534 | erot = 377778.540767753 | etot = 820703.271045318
865  ekin = 567.525003574765 | epot = 442357.205264136 | erot = 377777.937973417 | etot = 820702.668241128
866  ekin = 567.521677667145 | epot = 442357.208580182 | erot = 377777.334318038 | etot = 820702.064575887
867  ekin = 567.518348311333 | epot = 442357.21189967 | erot = 377776.729801473 | etot = 820701.460049454
868  ekin = 567.515015508454 | epot = 442357.215222599 | erot = 377776.124423578 | etot = 820700.854661685
869  ekin = 567.511679258608 | epot = 442357.218548967 | erot = 377775.51818421 | etot = 820700.248412436
870  ekin = 567.508339564432 | epot = 442357.221878775 | erot = 377774.911083228 | etot = 820699.641301567
871  ekin = 567.504996427361 | epot = 442357.225212019 | erot = 377774.303120488 | etot = 820699.033328934
872  ekin = 567.501649847896 | epot = 442357.228548699 | erot = 377773.694295848 | etot = 820698.424494394
873  ekin = 567.498299827948 | epot = 442357.231888813 | erot = 377773.084609166 | etot = 820697.814797807
874  ekin = 567.494946367445 | epot = 442357.235232361 | erot = 377772.474060301 | etot = 820697.204239029
875  ekin = 567.491589470023 | epot = 442357.238579341 | erot = 377771.86264911 | etot = 820696.592817921
876  ekin = 567.488229135373 | epot = 442357.241929751 | erot = 377771.250375453 | etot = 820695.98053434
877  ekin = 567.484865365277 | epot = 442357.24528359 | erot = 377770.637239189 | etot = 820695.367388144
878  ekin = 567.481498161462 | epot = 442357.248640857 | erot = 377770.023240176 | etot = 820694.753379195
879  ekin = 567.478127524537 | epot = 442357.252001551 | erot = 377769.408378275 | etot = 820694.13850735
880  ekin = 567.474753456394 | epot = 442357.255365669 | erot = 377768.792653344 | etot = 820693.52277247
881  ekin = 567.471375958219 | epot = 442357.258733212 | erot = 377768.176065243 | etot = 820692.906174413
882  ekin = 567.467995031288 | epot = 442357.262104177 | erot = 377767.558613833 | etot = 820692.288713041
883  ekin = 567.464610676967 | epot = 442357.265478564 | erot = 377766.940298973 | etot = 820691.670388214
884  ekin = 567.461222896817 | epot = 442357.26885637 | erot = 377766.321120525 | etot = 820691.051199792
885  ekin = 567.457831691639 | epot = 442357.272237596 | erot = 377765.701078348 | etot = 820690.431147636
886  ekin = 567.454437063747 | epot = 442357.275622238 | erot = 377765.080172305 | etot = 820689.810231606
887  ekin = 567.451039013599 | epot = 442357.279010296 | erot = 377764.458402255 | etot = 820689.188451565
888  ekin = 567.447637542774 | epot = 442357.282401769 | erot = 377763.835768061 | etot = 820688.565807372
889  ekin = 567.444232652598 | epot = 442357.285796655 | erot = 377763.212269584 | etot = 820687.942298892
890  ekin = 567.440824344469 | epot = 442357.289194954 | erot = 377762.587906685 | etot = 820687.317925984
891  ekin = 567.437412620076 | epot = 442357.292596663 | erot = 377761.962679228 | etot = 820686.69268851
892  ekin = 567.43399748016 | epot = 442357.296001781 | erot = 377761.336587074 | etot = 820686.066586334
893  ekin = 567.430578926572 | epot = 442357.299410306 | erot = 377760.709630085 | etot = 820685.439619318
894  ekin = 567.427156960491 | epot = 442357.302822239 | erot = 377760.081808125 | etot = 820684.811787325
895  ekin = 567.423731583427 | epot = 442357.306237577 | erot = 377759.453121057 | etot = 820684.183090217
896  ekin = 567.420302796338 | epot = 442357.309656318 | erot = 377758.823568743 | etot = 820683.553527858
897  ekin = 567.416870600688 | epot = 442357.313078462 | erot = 377758.193151048 | etot = 820682.92310011
898  ekin = 567.413434998464 | epot = 442357.316504007 | erot = 377757.561867834 | etot = 820682.29180684
899  ekin = 567.409995989894 | epot = 442357.319932953 | erot = 377756.929718965 | etot = 820681.659647908
900  ekin = 567.40655357757 | epot = 442357.323365296 | erot = 377756.296704307 | etot = 820681.026623181
901  ekin = 567.403107762269 | epot = 442357.326801037 | erot = 377755.662823723 | etot = 820680.392732522
902  ekin = 567.399658545622 | epot = 442357.330240173 | erot = 377755.028077077 | etot = 820679.757975796
903  ekin = 567.39620592827 | epot = 442357.333682704 | erot = 377754.392464235 | etot = 820679.122352868
904  ekin = 567.392749911995 | epot = 442357.337128629 | erot = 377753.755985061 | etot = 820678.485863602
905  ekin = 567.389290498706 | epot = 442357.340577944 | erot = 377753.118639421 | etot = 820677.848507864
906  ekin = 567.385827689159 | epot = 442357.34403065 | erot = 377752.48042718 | etot = 820677.21028552
907  ekin = 567.382361485359 | epot = 442357.347486745 | erot = 377751.841348204 | etot = 820676.571196435
908  ekin = 567.378891887851 | epot = 442357.350946229 | erot = 377751.201402359 | etot = 820675.931240476
909  ekin = 567.375418897932 | epot = 442357.354409098 | erot = 377750.560589511 | etot = 820675.290417507
910  ekin = 567.371942517889 | epot = 442357.357875352 | erot = 377749.918909527 | etot = 820674.648727397
911  ekin = 567.368462748815 | epot = 442357.36134499 | erot = 377749.276362272 | etot = 820674.006170011
912  ekin = 567.364979591469 | epot = 442357.36481801 | erot = 377748.632947614 | etot = 820673.362745216
913  ekin = 567.361493047925 | epot = 442357.368294412 | erot = 377747.98866542 | etot = 820672.718452879
914  ekin = 567.358003119675 | epot = 442357.371774192 | erot = 377747.343515557 | etot = 820672.073292869
915  ekin = 567.354509807271 | epot = 442357.375257351 | erot = 377746.697497893 | etot = 820671.427265051
916  ekin = 567.351013112779 | epot = 442357.378743886 | erot = 377746.050612295 | etot = 820670.780369294
917  ekin = 567.347513036888 | epot = 442357.382233796 | erot = 377745.402858632 | etot = 820670.132605465
918  ekin = 567.344009582107 | epot = 442357.385727081 | erot = 377744.754236771 | etot = 820669.483973434
919  ekin = 567.340502749155 | epot = 442357.389223738 | erot = 377744.104746581 | etot = 820668.834473069
920  ekin = 567.336992539014 | epot = 442357.392723767 | erot = 377743.454387932 | etot = 820668.184104237
921  ekin = 567.333478954094 | epot = 442357.396227165 | erot = 377742.80316069 | etot = 820667.532866809
922  ekin = 567.329961994998 | epot = 442357.399733932 | erot = 377742.151064726 | etot = 820666.880760654
923  ekin = 567.326441663404 | epot = 442357.403244067 | erot = 377741.49809991 | etot = 820666.22778564
924  ekin = 567.32291796096 | epot = 442357.406757566 | erot = 377740.84426611 | etot = 820665.573941637
925  ekin = 567.319390888206 | epot = 442357.410274431 | erot = 377740.189563196 | etot = 820664.919228515
926  ekin = 567.315860447116 | epot = 442357.413794658 | erot = 377739.533991039 | etot = 820664.263646144
927  ekin = 567.312326639884 | epot = 442357.417318246 | erot = 377738.877549509 | etot = 820663.607194395
928  ekin = 567.308789466657 | epot = 442357.420845195 | erot = 377738.220238476 | etot = 820662.949873138
929  ekin = 567.305248929479 | epot = 442357.424375503 | erot = 377737.56205781 | etot = 820662.291682243
930  ekin = 567.301705028966 | epot = 442357.427909169 | erot = 377736.903007384 | etot = 820661.632621582
931  ekin = 567.298157767446 | epot = 442357.43144619 | erot = 377736.243087068 | etot = 820660.972691026
932  ekin = 567.29460714621 | epot = 442357.434986567 | erot = 377735.582296733 | etot = 820660.311890446
933  ekin = 567.291053166185 | epot = 442357.438530296 | erot = 377734.920636251 | etot = 820659.650219714
934  ekin = 567.287495829086 | epot = 442357.442077378 | erot = 377734.258105494 | etot = 820658.987678701
935  ekin = 567.283935136263 | epot = 442357.44562781 | erot = 377733.594704334 | etot = 820658.32426728
936  ekin = 567.280371089449 | epot = 442357.449181591 | erot = 377732.930432644 | etot = 820657.659985324
937  ekin = 567.276803689619 | epot = 442357.45273872 | erot = 377732.265290295 | etot = 820656.994832705
938  ekin = 567.27323293793 | epot = 442357.456299194 | erot = 377731.599277161 | etot = 820656.328809294
939  ekin = 567.269658836505 | epot = 442357.459863015 | erot = 377730.932393115 | etot = 820655.661914966
940  ekin = 567.266081386604 | epot = 442357.463430178 | erot = 377730.26463803 | etot = 820654.994149595
941  ekin = 567.262500588856 | epot = 442357.467000684 | erot = 377729.596011779 | etot = 820654.325513052
942  ekin = 567.258916446271 | epot = 442357.470574531 | erot = 377728.926514236 | etot = 820653.656005213
943  ekin = 567.255328958438 | epot = 442357.474151717 | erot = 377728.256145275 | etot = 820652.98562595
944  ekin = 567.251738128539 | epot = 442357.477732241 | erot = 377727.58490477 | etot = 820652.314375139
945  ekin = 567.248143956768 | epot = 442357.481316101 | erot = 377726.912792596 | etot = 820651.642252653
946  ekin = 567.244546444444 | epot = 442357.484903296 | erot = 377726.239808626 | etot = 820650.969258367
947  ekin = 567.240945593598 | epot = 442357.488493825 | erot = 377725.565952737 | etot = 820650.295392156
948  ekin = 567.237341405822 | epot = 442357.492087687 | erot = 377724.891224803 | etot = 820649.620653895
949  ekin = 567.233733882325 | epot = 442357.495684879 | erot = 377724.215624699 | etot = 820648.94504346
950  ekin = 567.230123023942 | epot = 442357.499285401 | erot = 377723.539152301 | etot = 820648.268560726
951  ekin = 567.22650883292 | epot = 442357.502889251 | erot = 377722.861807485 | etot = 820647.591205568
952  ekin = 567.222891310504 | epot = 442357.506496427 | erot = 377722.183590126 | etot = 820646.912977864
953  ekin = 567.219270457338 | epot = 442357.510106929 | erot = 377721.504500101 | etot = 820646.233877488
954  ekin = 567.21564627613 | epot = 442357.513720755 | erot = 377720.824537287 | etot = 820645.553904318
955  ekin = 567.212018767496 | epot = 442357.517337903 | erot = 377720.143701559 | etot = 820644.87305823
956  ekin = 567.208387933099 | epot = 442357.520958373 | erot = 377719.461992795 | etot = 820644.191339101
957  ekin = 567.204753774368 | epot = 442357.524582162 | erot = 377718.779410872 | etot = 820643.508746808
958  ekin = 567.201116292131 | epot = 442357.528209269 | erot = 377718.095955668 | etot = 820642.825281229
959  ekin = 567.197475488939 | epot = 442357.531839693 | erot = 377717.41162706 | etot = 820642.140942242
960  ekin = 567.193831366241 | epot = 442357.535473432 | erot = 377716.726424925 | etot = 820641.455729724
961  ekin = 567.19018392456 | epot = 442357.539110484 | erot = 377716.040349143 | etot = 820640.769643552
962  ekin = 567.186533165312 | epot = 442357.54275085 | erot = 377715.353399591 | etot = 820640.082683606
963  ekin = 567.182879090758 | epot = 442357.546394526 | erot = 377714.665576147 | etot = 820639.394849764
964  ekin = 567.179221701867 | epot = 442357.550041512 | erot = 377713.976878691 | etot = 820638.706141905
965  ekin = 567.175561000449 | epot = 442357.553691806 | erot = 377713.287307101 | etot = 820638.016559908
966  ekin = 567.171896986989 | epot = 442357.557345407 | erot = 377712.596861257 | etot = 820637.326103651
967  ekin = 567.168229663976 | epot = 442357.561002314 | erot = 377711.905541038 | etot = 820636.634773016
968  ekin = 567.164559032284 | epot = 442357.564662524 | erot = 377711.213346324 | etot = 820635.94256788
969  ekin = 567.160885094186 | epot = 442357.568326037 | erot = 377710.520276995 | etot = 820635.249488126
970  ekin = 567.157207849774 | epot = 442357.571992851 | erot = 377709.82633293 | etot = 820634.555533631
971  ekin = 567.153527301285 | epot = 442357.575662964 | erot = 377709.131514011 | etot = 820633.860704277
972  ekin = 567.149843450684 | epot = 442357.579336376 | erot = 377708.435820118 | etot = 820633.164999944
973  ekin = 567.14615629873 | epot = 442357.583013084 | erot = 377707.739251131 | etot = 820632.468420514
974  ekin = 567.142465846653 | epot = 442357.586693087 | erot = 377707.041806932 | etot = 820631.770965866
975  ekin = 567.138772097069 | epot = 442357.590376385 | erot = 377706.343487402 | etot = 820631.072635884
976  ekin = 567.135075050026 | epot = 442357.594062974 | erot = 377705.644292423 | etot = 820630.373430447
977  ekin = 567.13137470816 | epot = 442357.597752855 | erot = 377704.944221876 | etot = 820629.673349439
978  ekin = 567.127671071917 | epot = 442357.601446025 | erot = 377704.243275643 | etot = 820628.97239274
979  ekin = 567.123964143286 | epot = 442357.605142483 | erot = 377703.541453607 | etot = 820628.270560233
980  ekin = 567.120253924092 | epot = 442357.608842228 | erot = 377702.83875565 | etot = 820627.567851802
981  ekin = 567.116540415184 | epot = 442357.612545258 | erot = 377702.135181654 | etot = 820626.864267328
982  ekin = 567.112823618172 | epot = 442357.616251572 | erot = 377701.430731503 | etot = 820626.159806694
983  ekin = 567.109103534286 | epot = 442357.619961168 | erot = 377700.72540508 | etot = 820625.454469783
984  ekin = 567.1053801661 | epot = 442357.623674045 | erot = 377700.019202268 | etot = 820624.74825648
985  ekin = 567.101653513657 | epot = 442357.627390202 | erot = 377699.312122951 | etot = 820624.041166666
986  ekin = 567.097923579362 | epot = 442357.631109636 | erot = 377698.604167012 | etot = 820623.333200228
987  ekin = 567.094190364661 | epot = 442357.634832347 | erot = 377697.895334337 | etot = 820622.624357048
988  ekin = 567.090453870031 | epot = 442357.638558333 | erot = 377697.185624808 | etot = 820621.91463701
989  ekin = 567.086714098141 | epot = 442357.642287592 | erot = 377696.47503831 | etot = 820621.20404
990  ekin = 567.082971050064 | epot = 442357.646020123 | erot = 377695.763574729 | etot = 820620.492565903
991  ekin = 567.079224726893 | epot = 442357.649755925 | erot = 377695.051233949 | etot = 820619.780214601
992  ekin = 567.075475131093 | epot = 442357.653494996 | erot = 377694.338015856 | etot = 820619.066985984
993  ekin = 567.071722262722 | epot = 442357.657237335 | erot = 377693.623920335 | etot = 820618.352879933
994  ekin = 567.06796612419 | epot = 442357.660982941 | erot = 377692.908947272 | etot = 820617.637896337
995  ekin = 567.064206717258 | epot = 442357.664731811 | erot = 377692.193096552 | etot = 820616.92203508
996  ekin = 567.060444042963 | epot = 442357.668483944 | erot = 377691.476368062 | etot = 820616.205296049
997  ekin = 567.056678102549 | epot = 442357.672239339 | erot = 377690.758761689 | etot = 820615.48767913
998  ekin = 567.052908897624 | epot = 442357.675997995 | erot = 377690.040277318 | etot = 820614.76918421
999  ekin = 567.049136429893 | epot = 442357.679759909 | erot = 377689.320914837 | etot = 820614.049811176
1000  ekin = 567.045360701155 | epot = 442357.683525081 | erot = 377688.600674133 | etot = 820613.329559915
1001  ekin = 567.041581711757 | epot = 442357.687293508 | erot = 377687.879555093 | etot = 820612.608430313
1002  ekin = 567.03779946451 | epot = 442357.691065191 | erot = 377687.157557605 | etot = 820611.886422261
1003  ekin = 567.034013960572 | epot = 442357.694840126 | erot = 377686.434681557 | etot = 820611.163535644
1004  ekin = 567.030225201086 | epot = 442357.698618313 | erot = 377685.710926836 | etot = 820610.43977035
1005  ekin = 567.026433187083 | epot = 442357.70239975 | erot = 377684.986293331 | etot = 820609.715126268
1006  ekin = 567.022637920822 | epot = 442357.706184436 | erot = 377684.26078093 | etot = 820608.989603287
1007  ekin = 567.018839404457 | epot = 442357.709972368 | erot = 377683.534389523 | etot = 820608.263201296
1008  ekin = 567.015037637633 | epot = 442357.713763547 | erot = 377682.807118997 | etot = 820607.535920182
1009  ekin = 567.011232623657 | epot = 442357.717557969 | erot = 377682.078969243 | etot = 820606.807759836
1010  ekin = 567.0074243626 | epot = 442357.721355634 | erot = 377681.34994015 | etot = 820606.078720147
1011  ekin = 567.003612856612 | epot = 442357.725156541 | erot = 377680.620031607 | etot = 820605.348801004
1012  ekin = 566.999798107311 | epot = 442357.728960687 | erot = 377679.889243504 | etot = 820604.618002298
1013  ekin = 566.995980116534 | epot = 442357.732768071 | erot = 377679.157575731 | etot = 820603.886323919
1014  ekin = 566.992158884956 | epot = 442357.736578693 | erot = 377678.42502818 | etot = 820603.153765757
1015  ekin = 566.988334414611 | epot = 442357.740392549 | erot = 377677.691600739 | etot = 820602.420327703
1016  ekin = 566.984506706625 | epot = 442357.74420964 | erot = 377676.957293301 | etot = 820601.686009647
1017  ekin = 566.980675763547 | epot = 442357.748029962 | erot = 377676.222105756 | etot = 820600.950811482
1018  ekin = 566.976841585212 | epot = 442357.751853515 | erot = 377675.486037996 | etot = 820600.214733097
1019  ekin = 566.973004174267 | epot = 442357.755680298 | erot = 377674.749089912 | etot = 820599.477774384
1020  ekin = 566.969163532119 | epot = 442357.759510308 | erot = 377674.011261396 | etot = 820598.739935237
1021  ekin = 566.965319659669 | epot = 442357.763343545 | erot = 377673.27255234 | etot = 820598.001215544
1022  ekin = 566.961472558656 | epot = 442357.767180006 | erot = 377672.532962636 | etot = 820597.2616152
1023  ekin = 566.9576222317