LAMMPS data file via write_data, version 10 Dec 2025, timestep = 2000, units = lj

400 atoms
2 atom types
400 ellipsoids

53.93442029239189 87.48693594491705 xlo xhi
53.93442029239189 87.48693594491705 ylo yhi
-30.5355339059327378 30.5355339059327378 zlo zhi

Pair Coeffs # gayberne

1 3 1 1 1 1 1 1 1
2 1 1 1 1 0.2 1 1 0.2

Atoms # ellipsoid

1 1 1 1.909859317102744 55.937236964101594 57.667514954271454 0 0 0 0
11 1 1 1.909859317102744 55.33146033780494 58.48359326104072 0 0 0 0
12 1 1 1.909859317102744 57.12843971639686 57.95337209762657 0 0 0 0
13 1 1 1.909859317102744 58.66170139928574 55.93955680552225 0 0 0 0
5 1 1 1.909859317102744 62.06149626083196 55.10373500655098 0 0 0 0
14 2 1 0.954929658551372 60.504186432360775 55.74555340368824 0 0 0 0
23 1 1 1.909859317102744 58.69701864435216 57.018920068335696 0 0 0 0
24 1 1 1.909859317102744 62.542178785723316 56.1472223922396 0 0 0 0
15 1 1 1.909859317102744 65.35129204085632 55.54498034855646 0 0 0 0
16 1 1 1.909859317102744 62.75793171765725 57.32439361599112 0 0 0 0
17 1 1 1.909859317102744 63.4604689313486 55.369892856668095 0 0 0 0
18 1 1 1.909859317102744 64.92100314278255 54.35067267267197 0 0 0 0
28 1 1 1.909859317102744 64.10080018286324 56.2751273039928 0 0 0 0
29 2 1 0.954929658551372 65.48186608279558 59.130587550340096 0 0 0 0
116 1 1 1.909859317102744 62.38820562132511 70.35429749367309 0 0 0 0
231 1 1 1.909859317102744 67.97035561742054 59.712170886721495 0 0 0 0
19 1 1 1.909859317102744 69.0360116482036 54.40163697648986 0 0 0 0
20 1 1 1.909859317102744 68.78787668921566 55.468602131476665 0 0 0 0
197 1 1 1.909859317102744 63.571100165413455 54.329929042971145 0 0 1 0
22 1 1 1.909859317102744 54.76416486929873 59.61122068006901 0 0 0 0
31 1 1 1.909859317102744 56.30057779329885 58.82232080047244 0 0 0 0
32 1 1 1.909859317102744 56.85938320647567 60.294904190333995 0 0 0 0
41 1 1 1.909859317102744 54.501329608447335 60.90803617075164 0 0 0 0
25 1 1 1.909859317102744 60.933467895355335 58.18305306102156 0 0 0 0
33 1 1 1.909859317102744 59.682003271778896 58.15283253000017 0 0 0 0
34 1 1 1.909859317102744 59.07643421986357 60.93271855127643 0 0 0 0
43 1 1 1.909859317102744 58.28152875687809 60.078745679280495 0 0 0 0
44 1 1 1.909859317102744 60.345147086708245 59.01657512567629 0 0 0 0
26 1 1 1.909859317102744 61.81891870324013 56.786147645857575 0 0 0 0
27 1 1 1.909859317102744 62.34700816957292 58.4923840703302 0 0 0 0
35 1 1 1.909859317102744 62.281047211317365 60.5571817586814 0 0 0 0
36 1 1 1.909859317102744 61.41096982967838 61.13683669260815 0 0 0 0
47 1 1 1.909859317102744 63.27125881992826 60.22227635124025 0 0 0 0
37 2 1 0.954929658551372 63.84356256648369 58.3977388685378 0 0 0 0
38 1 1 1.909859317102744 64.18685717117506 61.20883757124288 0 0 0 0
30 2 1 0.954929658551372 66.54100999274921 56.322980721032664 0 0 0 0
39 1 1 1.909859317102744 67.27486693134944 61.69728390427209 0 0 0 0
40 1 1 1.909859317102744 68.47934944625435 62.02948893951533 0 0 0 0
50 1 1 1.909859317102744 68.25737225271979 61.017318719116176 0 0 0 0
42 1 1 1.909859317102744 55.80743359538683 60.16866025792819 0 0 0 0
51 1 1 1.909859317102744 53.93450787293392 61.78479121211102 0 0 0 0
52 1 1 1.909859317102744 57.92694670813666 61.04447277512242 0 0 0 0
61 1 1 1.909859317102744 57.22778229393223 63.467939173848315 0 0 0 0
63 1 1 1.909859317102744 56.816212777248076 61.326891734266155 0 0 0 0
53 1 1 1.909859317102744 54.90767078497192 62.25866409147692 0 0 0 0
54 1 1 1.909859317102744 58.997321015334535 62.20918849738399 0 0 0 0
55 1 1 1.909859317102744 60.373686013299036 60.738864469515875 0 0 0 0
64 1 1 1.909859317102744 58.18746946341151 64.84165924168825 0 0 0 0
65 1 1 1.909859317102744 59.501034842973525 63.53748902035316 0 0 0 0
45 1 1 1.909859317102744 60.308877562350034 62.34889477585502 0 0 0 0
46 1 1 1.909859317102744 61.5599930659449 66.02587254649536 0 0 0 0
56 1 1 1.909859317102744 59.690578768956584 64.86121112183227 0 0 0 0
57 1 1 1.909859317102744 64.78600544462535 65.56370216074703 0 0 0 0
48 2 1 0.954929658551372 67.29065841304816 64.42464370121692 0 0 0 0
49 1 1 1.909859317102744 65.94355036385588 61.01229689315079 0 0 0 0
58 1 1 1.909859317102744 63.5742700192416 63.913483409310764 0 0 0 0
69 1 1 1.909859317102744 68.721877384632 65.33482358103413 0 0 0 0
261 1 1 1.909859317102744 69.98869992350484 63.62026848144358 0 0 0 0
251 1 1 1.909859317102744 69.5066562078812 61.51894624252888 0 0 0 0
59 1 1 1.909859317102744 69.31223279686935 62.7981202172618 0 0 0 0
60 1 1 1.909859317102744 68.05883760461457 63.19003740269281 0 0 0 0
70 1 1 1.909859317102744 68.86001492584438 63.761838104876105 0 0 0 0
62 1 1 1.909859317102744 54.544247601031536 64.51495795513402 0 0 0 0
72 1 1 1.909859317102744 57.996901537383984 66.07440790656388 0 0 0 0
81 2 1 0.954929658551372 55.77005877439145 68.43496675855918 0 0 0 0
82 1 1 1.909859317102744 56.690221864623176 69.69002135838394 0 0 0 0
73 1 1 1.909859317102744 58.15622516533682 68.79516510273885 0 0 0 0
74 1 1 1.909859317102744 60.12790597293518 67.5624340618876 0 0 0 0
75 1 1 1.909859317102744 59.03049344156711 66.33880789859532 0 0 0 0
83 1 1 1.909859317102744 57.747597135893045 62.3145687313134 0 0 0 0
66 2 1 0.954929658551372 60.79137860686275 65.04526727171519 0 0 0 0
76 1 1 1.909859317102744 65.31188136218306 66.77000773025584 0 0 0 0
77 1 1 1.909859317102744 66.39449441945465 67.39016068662437 0 0 0 0
86 1 1 1.909859317102744 64.23344166531228 67.16222146740466 0 0 0 0
67 1 1 1.909859317102744 64.83038843219994 63.8544760922282 0 0 0 0
68 1 1 1.909859317102744 67.00263227662404 66.24608237935057 0 0 0 0
78 1 1 1.909859317102744 65.57086328537206 64.71492376449889 0 0 0 0
88 1 1 1.909859317102744 65.91263729956586 65.90422041245776 0 0 0 0
271 1 1 1.909859317102744 69.75414820461803 65.58717551157591 0 0 0 0
79 1 1 1.909859317102744 68.99348168787905 67.42935628854721 0 0 0 0
80 1 1 1.909859317102744 68.30654361379503 66.39993741491786 0 0 0 0
89 1 1 1.909859317102744 70.07767844134796 66.71323389748778 0 0 0 0
222 1 1 1.909859317102744 69.2502235132104 58.20817766953273 0 0 0 0
91 1 1 1.909859317102744 57.85912595721792 69.89549090043069 0 0 0 0
211 1 1 1.909859317102744 70.13874799396282 54.98613411985868 0 0 0 0
93 1 1 1.909859317102744 59.069616520338165 69.9819495259891 0 0 0 0
103 1 1 1.909859317102744 60.97620561076832 70.31539824254895 0 0 0 0
84 1 1 1.909859317102744 61.058845194449276 66.91507451669925 0 0 0 0
85 1 1 1.909859317102744 62.0478561746842 67.33608150009418 0 0 0 0
94 1 1 1.909859317102744 60.066719388588965 69.45704928560914 0 0 0 0
104 1 1 1.909859317102744 61.039318903985304 68.28517217664842 0 0 0 0
97 2 1 0.954929658551372 64.40224473820034 68.31796947771734 0 0 0 0
95 1 1 1.909859317102744 62.98743645475429 66.88208253320204 0 0 0 0
3 1 1 1.909859317102744 56.94729251758884 55.46354136455191 0 0 0 0
106 1 1 1.909859317102744 61.71831513221311 69.13205424437291 0 0 0 0
98 1 1 1.909859317102744 67.54356161892024 67.17140377384104 0 0 0 0
99 1 1 1.909859317102744 66.97077308809723 68.4461254815899 0 0 0 0
87 1 1 1.909859317102744 65.75268654296228 69.67073429219307 0 0 0 0
107 1 1 1.909859317102744 65.89248171422426 68.45898734712968 0 0 0 0
100 1 1 1.909859317102744 67.9400107248496 68.1057539630161 0 0 0 0
281 1 1 1.909859317102744 70.08260125214132 67.97353268331044 0 0 0 0
221 1 1 1.909859317102744 70.18715178698719 56.21014071725043 0 0 0 0
220 1 1 1.909859317102744 54.9213859929127 57.29235994470187 0 1 0 0
2 2 1 0.954929658551372 56.57061723328685 56.5537745872156 0 0 0 0
108 2 1 0.954929658551372 64.39512419632736 70.52101826927893 0 0 0 0
4 1 1 1.909859317102744 55.134845995190084 54.82901056927323 0 0 0 0
21 1 1 1.909859317102744 54.000818274456684 58.89215914000651 0 0 0 0
242 1 1 1.909859317102744 70.33966645191283 62.51376226001064 0 0 0 0
102 1 1 1.909859317102744 58.88759378439834 71.15119575111113 0 0 0 0
112 1 1 1.909859317102744 54.97477557383771 72.15146400041581 0 0 0 0
201 1 1 1.909859317102744 70.02830733795459 87.35165559884857 0 0 -1 0
123 1 1 1.909859317102744 55.51329807164049 73.60228981987876 0 0 0 0
101 1 1 1.909859317102744 57.916225031408075 72.0066697047788 0 0 0 0
110 2 1 0.954929658551372 68.24909294304908 71.12901439463785 0 0 0 0
114 1 1 1.909859317102744 59.2386115900901 72.58792288499109 0 0 0 0
115 1 1 1.909859317102744 61.28047628275314 72.15159451710153 0 0 0 0
124 1 1 1.909859317102744 59.967917816958504 73.59921805488938 0 0 0 0
105 1 1 1.909859317102744 61.52314405215651 71.12209655899628 0 0 0 0
371 1 1 1.909859317102744 69.7960833601183 79.82471895247639 0 0 0 0
117 1 1 1.909859317102744 63.57675322135774 74.76206932905743 0 0 0 0
125 1 1 1.909859317102744 63.85575264733346 73.65050621772578 0 0 0 0
321 1 1 1.909859317102744 68.08227461809496 73.48296043431638 0 0 0 0
109 1 1 1.909859317102744 66.20810301620523 72.52237021065453 0 0 0 0
118 1 1 1.909859317102744 64.9086696513589 73.04537312995005 0 0 0 0
128 1 1 1.909859317102744 66.55068845135905 73.49123409715025 0 0 0 0
10 1 1 1.909859317102744 69.91651444047731 86.12278773014256 0 0 -1 0
119 1 1 1.909859317102744 67.07754514090088 71.29088654969584 0 0 0 0
120 1 1 1.909859317102744 67.26025087665985 72.66321382764541 0 0 0 0
130 1 1 1.909859317102744 69.24877285868513 74.58782553173513 0 0 0 0
122 1 1 1.909859317102744 54.076894090928796 75.36116770303046 0 0 0 0
8 1 1 1.909859317102744 65.76281125798675 87.0559451402155 0 0 -1 0
133 1 1 1.909859317102744 55.49921257655758 74.90835291800063 0 0 0 0
134 1 1 1.909859317102744 61.30452839757256 74.55758489902499 0 0 0 0
135 1 1 1.909859317102744 60.97884670161764 73.20960320152162 0 0 0 0
126 1 1 1.909859317102744 61.6040062333189 75.71029824713716 0 0 0 0
136 1 1 1.909859317102744 64.85385129237955 76.87479169646879 0 0 0 0
137 1 1 1.909859317102744 63.14902440053541 76.51494768309922 0 0 0 0
145 1 1 1.909859317102744 63.365282872191216 78.63910930244035 0 0 0 0
127 1 1 1.909859317102744 64.65637204447013 74.52384305411093 0 0 0 0
138 1 1 1.909859317102744 65.7896645644794 74.59718499434692 0 0 0 0
139 1 1 1.909859317102744 66.3371323951915 75.65861989959421 0 0 0 0
147 1 1 1.909859317102744 65.16667012608937 75.54686436791086 0 0 0 0
129 1 1 1.909859317102744 67.81875545529786 74.6545771578702 0 0 0 0
140 1 1 1.909859317102744 70.3914934847868 76.90930701307386 0 0 0 0
301 1 1 1.909859317102744 70.47909862430124 72.89824370251303 0 0 0 0
311 1 1 1.909859317102744 69.41539708908685 73.50454986603575 0 0 0 0
143 1 1 1.909859317102744 55.061824193598085 76.2419485220179 0 0 0 0
152 1 1 1.909859317102744 56.20587029139393 76.14458254505898 0 0 0 0
162 1 1 1.909859317102744 55.32451864066993 80.80811966088528 0 0 0 0
144 2 1 0.954929658551372 59.63452352786098 75.84170634784577 0 0 0 0
153 1 1 1.909859317102744 59.988837261252 77.06853205240103 0 0 0 0
154 1 1 1.909859317102744 58.87738461248135 80.91327812275588 0 0 0 0
164 1 1 1.909859317102744 61.366775720253166 80.64357161947552 0 0 0 0
146 1 1 1.909859317102744 64.3278981847126 78.25444595463554 0 0 0 0
155 1 1 1.909859317102744 58.43144793541501 79.60181448868238 0 0 0 0
148 1 1 1.909859317102744 66.10695674950287 76.93318339962525 0 0 0 0
157 1 1 1.909859317102744 64.16271416155412 75.88819204359237 0 0 0 0
158 1 1 1.909859317102744 64.91333428965648 79.37355105350811 0 0 0 0
167 1 1 1.909859317102744 67.12074798912604 79.10026841152242 0 0 0 0
168 1 1 1.909859317102744 67.13537830672982 81.78975729852702 0 0 0 0
200 1 1 1.909859317102744 69.0231833222607 86.8232081969098 0 0 0 0
149 1 1 1.909859317102744 67.27799910133447 77.01980113861912 0 0 0 0
159 2 1 0.954929658551372 66.95217222748047 78.00444521450851 0 0 0 0
361 1 1 1.909859317102744 70.54793984523002 80.69321184986828 0 0 0 0
111 2 1 0.954929658551372 54.23566918386886 71.1787792713565 0 0 0 0
189 2 1 0.954929658551372 66.5482045069976 84.91584618517088 0 0 0 0
161 1 1 1.909859317102744 54.69147576502291 83.26538025077622 0 0 0 0
172 2 1 0.954929658551372 56.27204275401844 82.91590492563174 0 0 0 0
92 1 1 1.909859317102744 56.07362443579217 71.13380093450495 0 0 0 0
163 1 1 1.909859317102744 57.85013508223209 80.52978955051742 0 0 0 0
173 1 1 1.909859317102744 56.893697301741646 81.22550111180269 0 0 0 0
174 1 1 1.909859317102744 58.13607868566843 81.66221087992211 0 0 0 0
175 1 1 1.909859317102744 62.97418051801854 82.24110013680003 0 0 0 0
184 1 1 1.909859317102744 59.92799964888218 82.17193869138548 0 0 0 0
156 1 1 1.909859317102744 69.00360459687268 79.25650210075167 0 0 0 0
165 1 1 1.909859317102744 61.83165237832029 81.92341483555475 0 0 0 0
166 2 1 0.954929658551372 63.018888286995676 79.6883108720165 0 0 0 0
176 1 1 1.909859317102744 65.778881083574 83.38017652525185 0 0 0 0
185 2 1 0.954929658551372 60.47960239896743 84.29258425483967 0 0 0 0
177 1 1 1.909859317102744 65.95447880701258 78.95654946282738 0 0 0 0
178 1 1 1.909859317102744 65.87381458188955 80.27778864043212 0 0 0 0
179 1 1 1.909859317102744 68.34493294116442 82.5333294598818 0 0 0 0
188 1 1 1.909859317102744 66.88104759180801 80.6155177508316 0 0 0 0
170 1 1 1.909859317102744 69.53612986786392 84.05328318232128 0 0 0 0
180 1 1 1.909859317102744 69.10271661727107 80.68512011208055 0 0 0 0
190 1 1 1.909859317102744 67.04540276296183 83.69280197334814 0 0 0 0
192 1 1 1.909859317102744 57.851882944172615 85.47965769151772 0 0 0 0
193 1 1 1.909859317102744 55.402886921986244 85.6903889574207 0 0 0 0
198 1 1 1.909859317102744 63.60290759443311 86.34130322410135 0 0 0 0
96 1 1 1.909859317102744 63.32695761546143 71.30874502768464 0 0 0 0
331 1 1 1.909859317102744 70.3554928424129 75.89149875747103 0 0 0 0
183 1 1 1.909859317102744 57.62663152162916 82.82781149650435 0 0 0 0
194 1 1 1.909859317102744 56.110312616067574 86.6273389166349 0 0 0 0
196 1 1 1.909859317102744 58.41953123116019 84.55933920116168 0 0 0 0
195 1 1 1.909859317102744 57.40283024092457 84.14102498921156 0 0 0 0
186 1 1 1.909859317102744 64.63213094685409 83.48357950065798 0 0 0 0
187 1 1 1.909859317102744 64.74321817810124 85.79760325784076 0 0 0 0
6 2 1 0.954929658551372 62.83651771134825 85.53118756650467 0 0 -1 0
7 1 1 1.909859317102744 64.67998619499188 86.85788224519675 0 0 -1 0
9 2 1 0.954929658551372 66.78129032735494 86.01418667955636 0 0 -1 0
121 1 1 1.909859317102744 54.362950212515 73.81380868162735 0 0 0 0
381 1 1 1.909859317102744 70.3508193644952 82.76362445032885 0 0 0 0
313 1 1 1.909859317102744 70.52102491335444 74.19506075059512 0 0 0 0
113 1 1 1.909859317102744 59.86224121502335 70.73938089317666 0 0 0 0
208 1 1 1.909859317102744 84.20189923137934 54.17756150636041 0 0 0 0
212 1 1 1.909859317102744 71.33650165720279 55.34904180250043 0 0 0 0
299 1 1 1.909859317102744 82.56660099721582 70.51018927440856 0 0 0 0
223 1 1 1.909859317102744 71.43075723248445 56.593792934522035 0 0 0 0
300 1 1 1.909859317102744 85.7239958393954 69.80479350623028 0 0 0 0
213 1 1 1.909859317102744 74.85164741955796 54.34383123565075 0 0 0 0
391 1 1 1.909859317102744 70.99472729447574 54.26081534101211 0 0 1 0
215 1 1 1.909859317102744 76.74596726311395 56.30458347844225 0 0 0 0
224 2 1 0.954929658551372 75.08495309445931 56.09643138730363 0 0 0 0
225 1 1 1.909859317102744 75.86755740917239 54.59233652586586 0 0 0 0
272 1 1 1.909859317102744 70.9957066031978 65.79242858170008 0 0 0 0
295 1 1 1.909859317102744 78.3719551376194 70.63876653036127 0 0 0 0
298 1 1 1.909859317102744 80.33442068576156 67.06726543202623 0 0 0 0
314 1 1 1.909859317102744 71.97522697418836 70.56321584516799 0 0 0 0
286 1 1 1.909859317102744 79.29033907099425 69.84670105100147 0 0 0 0
227 1 1 1.909859317102744 81.02752003404237 56.84525495800101 0 0 0 0
310 2 1 0.954929658551372 87.07036986278527 69.96833268484794 0 0 0 0
210 2 1 0.954929658551372 86.94818256122367 54.8209489656926 0 0 0 0
303 1 1 1.909859317102744 73.39307951374684 69.64347388852039 0 0 0 0
250 1 1 1.909859317102744 86.2812419049912 61.06308085896004 0 0 0 0
229 1 1 1.909859317102744 85.23925492888985 54.5742754259246 0 0 0 0
282 1 1 1.909859317102744 71.30685190379104 69.10563652669563 0 0 0 0
284 1 1 1.909859317102744 75.55241579287149 69.75171136454352 0 0 0 0
232 1 1 1.909859317102744 72.78649716604704 61.178054707717784 0 0 0 0
241 2 1 0.954929658551372 72.54963970857189 58.83644268682166 0 0 0 0
233 1 1 1.909859317102744 73.48865188181267 62.06831175648967 0 0 0 0
234 2 1 0.954929658551372 77.09607340075443 57.72298168286304 0 0 0 0
246 1 1 1.909859317102744 77.90037034310375 59.7777616260107 0 0 0 0
226 1 1 1.909859317102744 78.86424966496199 62.365065567788974 0 0 0 0
235 1 1 1.909859317102744 78.26532142659123 60.89256561259134 0 0 0 0
236 1 1 1.909859317102744 78.8117487697677 59.03250882344596 0 0 0 0
228 1 1 1.909859317102744 82.22462607793136 55.74408431442242 0 0 0 0
237 1 1 1.909859317102744 81.40269379065242 57.81326643216658 0 0 0 0
238 1 1 1.909859317102744 83.18003783018264 57.211036475544354 0 0 0 0
239 2 1 0.954929658551372 84.2514722263765 55.616781015290165 0 0 0 0
247 1 1 1.909859317102744 82.53827360080078 58.02465192740257 0 0 0 0
248 1 1 1.909859317102744 83.05343223450643 58.97683464826346 0 0 0 0
230 1 1 1.909859317102744 85.4437496220109 57.237143057930595 0 0 0 0
240 1 1 1.909859317102744 85.7495500935222 58.43305212238651 0 0 0 0
289 1 1 1.909859317102744 83.47115883179598 70.05139981665843 0 0 0 0
296 1 1 1.909859317102744 76.5644294039334 69.6462010670619 0 0 0 0
90 1 1 1.909859317102744 71.27211534032915 67.13069454910612 0 0 0 0
243 1 1 1.909859317102744 75.38087290013992 60.65550742997921 0 0 0 0
252 1 1 1.909859317102744 71.06684763643011 61.58939294569558 0 0 0 0
263 1 1 1.909859317102744 71.08338122875472 63.56197475132378 0 0 0 0
244 1 1 1.909859317102744 73.42031420695977 64.10390905061944 0 0 0 0
245 1 1 1.909859317102744 76.36673164722795 61.49436434535439 0 0 0 0
253 1 1 1.909859317102744 72.60939374013373 65.04105527996259 0 0 0 0
254 1 1 1.909859317102744 75.14189652018662 61.79404359500005 0 0 0 0
264 1 1 1.909859317102744 74.05763332617609 65.0813642101488 0 0 0 0
255 1 1 1.909859317102744 76.49343196132558 62.582264432913185 0 0 0 0
256 1 1 1.909859317102744 77.5269538269247 61.87368081585047 0 0 0 0
257 2 1 0.954929658551372 81.98998901186928 63.0811281040702 0 0 0 0
267 1 1 1.909859317102744 77.90438858166814 62.9002331914663 0 0 0 0
249 1 1 1.909859317102744 83.878060596193 58.1941200111097 0 0 0 0
258 2 1 0.954929658551372 80.59041992206038 59.385330799840894 0 0 0 0
259 2 1 0.954929658551372 84.92170121756274 63.096106309594504 0 0 0 0
260 1 1 1.909859317102744 86.50627147987248 59.31988076146975 0 0 0 0
262 2 1 0.954929658551372 72.98688479142604 66.32613651496526 0 0 0 0
203 1 1 1.909859317102744 72.0573291710212 54.04597324534038 0 0 0 0
283 1 1 1.909859317102744 73.42148066670194 68.52446655498925 0 0 0 0
265 1 1 1.909859317102744 75.9372501219665 63.94516713452691 0 0 0 0
273 1 1 1.909859317102744 75.31922945202524 65.01576157558695 0 0 0 0
274 1 1 1.909859317102744 74.74102672989025 68.23319613663578 0 0 0 0
276 1 1 1.909859317102744 76.44965769395637 64.91599464248026 0 0 0 0
266 1 1 1.909859317102744 77.25659985457786 63.87786338939418 0 0 0 0
275 1 1 1.909859317102744 76.16437992783246 68.63128035572956 0 0 0 0
277 2 1 0.954929658551372 77.65461325714243 66.56934500752305 0 0 0 0
287 1 1 1.909859317102744 80.46871452478044 68.75667054776196 0 0 0 0
268 1 1 1.909859317102744 83.88719124757748 63.82024874296792 0 0 0 0
269 2 1 0.954929658551372 81.92069742972336 67.36722386963064 0 0 0 0
278 1 1 1.909859317102744 81.23573702821838 66.37032888723756 0 0 0 0
71 1 1 1.909859317102744 85.90295851422677 68.11749111385868 0 -1 0 0
270 1 1 1.909859317102744 83.87954209048152 65.30299193009517 0 0 0 0
279 2 1 0.954929658551372 85.43818407864148 65.77582440045667 0 0 0 0
280 1 1 1.909859317102744 83.00706483688086 67.69741744956251 0 0 0 0
290 1 1 1.909859317102744 85.10852663084614 68.87065891155194 0 0 0 0
293 1 1 1.909859317102744 73.59778519352346 67.52892445582783 0 0 0 0
316 1 1 1.909859317102744 77.24408663132414 70.42591117126005 0 0 0 0
291 1 1 1.909859317102744 72.42649551802286 68.3573623983599 0 0 0 0
302 1 1 1.909859317102744 72.26718127644949 69.53929309302234 0 0 0 0
294 1 1 1.909859317102744 75.46814193807478 67.41450682228228 0 0 0 0
292 1 1 1.909859317102744 74.36606293108036 69.38872124187914 0 0 0 0
309 1 1 1.909859317102744 84.47661191505648 70.52888210073492 0 0 0 0
285 1 1 1.909859317102744 76.73934475649088 71.90994135899994 0 0 0 0
312 1 1 1.909859317102744 74.57780233234993 73.9908092335567 0 0 0 0
199 1 1 1.909859317102744 71.53829362000624 83.02078160980561 0 0 0 0
142 1 1 1.909859317102744 87.0078726885643 78.05688286267349 0 -1 0 0
400 1 1 1.909859317102744 83.55011340190842 86.60111717701993 0 0 0 0
322 1 1 1.909859317102744 73.5352022351735 73.3800763525369 0 0 0 0
304 2 1 0.954929658551372 74.13628480508002 71.47009106506748 0 0 0 0
305 1 1 1.909859317102744 76.31570992169648 72.88287042782973 0 0 0 0
323 1 1 1.909859317102744 75.0610313497822 74.99042764627848 0 0 0 0
306 1 1 1.909859317102744 78.75292610837829 71.7903111035317 0 0 0 0
315 1 1 1.909859317102744 77.86933245854331 72.14504596547499 0 0 0 0
209 1 1 1.909859317102744 84.10004962868192 85.55180275066253 0 0 -1 0
325 1 1 1.909859317102744 77.10756753090513 73.73964116052937 0 0 0 0
326 2 1 0.954929658551372 79.77265305861673 72.90454251643865 0 0 0 0
308 1 1 1.909859317102744 82.37911077307095 71.61970539938622 0 0 0 0
317 1 1 1.909859317102744 81.77600225332677 73.16567060715253 0 0 0 0
318 1 1 1.909859317102744 84.04823608357346 72.45299441069864 0 0 0 0
319 1 1 1.909859317102744 83.49141979072513 71.37510729238883 0 0 0 0
327 1 1 1.909859317102744 82.47999019062298 74.06143244654594 0 0 0 0
320 1 1 1.909859317102744 85.0253704901524 71.81629682962564 0 0 0 0
329 1 1 1.909859317102744 84.95017446610714 73.16392407722057 0 0 0 0
332 1 1 1.909859317102744 72.73044934433665 74.35676124815012 0 0 0 0
352 1 1 1.909859317102744 73.55994891413991 77.93581550031058 0 0 0 0
382 1 1 1.909859317102744 73.00433051734032 84.17699265086023 0 0 0 0
324 1 1 1.909859317102744 76.3537750730983 74.957304581452 0 0 0 0
333 1 1 1.909859317102744 73.85598804058807 75.27690748179486 0 0 0 0
334 1 1 1.909859317102744 75.73398138353018 73.93523681369543 0 0 0 0
335 1 1 1.909859317102744 77.83112685283811 74.59009908779815 0 0 0 0
345 2 1 0.954929658551372 76.10908414262204 76.68720184571805 0 0 0 0
336 1 1 1.909859317102744 80.46251469824911 74.68135819198393 0 0 0 0
328 1 1 1.909859317102744 83.00084337510252 76.55278381702985 0 0 0 0
337 1 1 1.909859317102744 82.15672445743621 75.79062535690198 0 0 0 0
339 1 1 1.909859317102744 83.11969250238964 75.30295943798079 0 0 0 0
347 1 1 1.909859317102744 81.60695327696942 74.89805284984362 0 0 0 0
348 1 1 1.909859317102744 82.00996693757455 76.87771145017976 0 0 0 0
399 1 1 1.909859317102744 85.21027901006404 86.95741230016627 0 0 0 0
131 1 1 1.909859317102744 86.82111523996733 73.23987298283511 0 -1 0 0
330 1 1 1.909859317102744 84.12016897146582 73.72845702601785 0 0 0 0
338 1 1 1.909859317102744 84.0234074039115 76.9563100511536 0 0 0 0
340 1 1 1.909859317102744 85.53521895291891 75.94182062722307 0 0 0 0
351 1 1 1.909859317102744 72.35238310984248 78.11524806733605 0 0 0 0
353 1 1 1.909859317102744 73.21899109983043 76.69675491289965 0 0 0 0
363 1 1 1.909859317102744 73.40519846095205 79.04204864252881 0 0 0 0
342 1 1 1.909859317102744 72.78397277032842 75.61210225333106 0 0 0 0
343 1 1 1.909859317102744 74.33483488907787 77.02820058392348 0 0 0 0
344 1 1 1.909859317102744 74.45661948527804 79.85537831758259 0 0 0 0
354 1 1 1.909859317102744 74.5608105563255 78.72374891036013 0 0 0 0
355 1 1 1.909859317102744 75.11899181864315 81.35834015561744 0 0 0 0
364 1 1 1.909859317102744 74.75959562584413 82.46730787677203 0 0 0 0
346 2 1 0.954929658551372 75.82631122324307 77.85304546104628 0 0 0 0
356 1 1 1.909859317102744 76.77537101406352 79.15622164405505 0 0 0 0
366 1 1 1.909859317102744 76.01618264298425 80.71622680693196 0 0 0 0
357 1 1 1.909859317102744 79.79891644336213 75.57980607225198 0 0 0 0
358 1 1 1.909859317102744 79.16144856508357 79.39688013281162 0 0 0 0
359 1 1 1.909859317102744 81.57739106882462 78.07803836733942 0 0 0 0
368 1 1 1.909859317102744 78.83612734744243 76.27120062183826 0 0 0 0
369 2 1 0.954929658551372 83.10799212389571 78.52581011562386 0 0 0 0
141 1 1 1.909859317102744 86.20702572367281 77.14888938284862 0 -1 0 0
349 1 1 1.909859317102744 85.11944270542094 77.23995362896301 0 0 0 0
350 1 1 1.909859317102744 85.7524260668516 79.8398916089429 0 0 0 0
360 1 1 1.909859317102744 85.04858729639146 78.87887771438173 0 0 0 0
160 1 1 1.909859317102744 71.33911610311813 77.62100224795394 0 0 0 0
191 1 1 1.909859317102744 86.80576529326032 84.0486912198864 0 -1 0 0
181 1 1 1.909859317102744 86.31648376004435 80.7529176397665 0 -1 0 0
362 1 1 1.909859317102744 73.74823015212287 80.75267903092903 0 0 0 0
372 1 1 1.909859317102744 71.54748747818117 79.88656674644079 0 0 0 0
373 1 1 1.909859317102744 71.96923482869478 81.39638774626516 0 0 0 0
150 1 1 1.909859317102744 71.54432705666167 76.00345236814589 0 0 0 0
374 1 1 1.909859317102744 75.7294125038955 82.19571853133873 0 0 0 0
375 1 1 1.909859317102744 75.72709740353002 83.53471391239134 0 0 0 0
383 1 1 1.909859317102744 73.86279719695904 83.53736615429045 0 0 0 0
365 1 1 1.909859317102744 76.77013922434936 81.49376901357165 0 0 0 0
376 1 1 1.909859317102744 78.1683148993687 81.94748154547125 0 0 0 0
377 1 1 1.909859317102744 77.67629061859147 80.19245624331445 0 0 0 0
367 1 1 1.909859317102744 78.85560447440079 80.59756643131348 0 0 0 0
378 1 1 1.909859317102744 82.39786023743103 84.10721005096204 0 0 0 0
388 1 1 1.909859317102744 83.4275456943108 84.71774069352534 0 0 0 0
171 1 1 1.909859317102744 84.57260744386576 79.81879399243323 0 -1 0 0
370 1 1 1.909859317102744 83.88984586152492 80.60334073182099 0 0 0 0
379 2 1 0.954929658551372 85.68945436889614 84.4176143411899 0 0 0 0
380 1 1 1.909859317102744 84.91409442182885 81.117869188843 0 0 0 0
202 1 1 1.909859317102744 72.5065320640128 86.23602304528164 0 0 -1 0
207 1 1 1.909859317102744 79.6525807340842 86.35582222594194 0 0 -1 0
390 1 1 1.909859317102744 86.80078776287476 85.22939561643292 0 0 0 0
392 1 1 1.909859317102744 74.40356953070699 84.67488953464247 0 0 0 0
341 1 1 1.909859317102744 72.15084981120214 76.88823641214204 0 0 0 0
384 1 1 1.909859317102744 76.78064064324278 82.56054789890517 0 0 0 0
385 1 1 1.909859317102744 76.7687192212359 83.9452266633026 0 0 0 0
393 1 1 1.909859317102744 75.17064476886635 86.77479569053965 0 0 0 0
394 1 1 1.909859317102744 75.6039720456433 84.76919929847658 0 0 0 0
205 1 1 1.909859317102744 75.002845829049 85.72717820360259 0 0 -1 0
386 2 1 0.954929658551372 78.53036458702994 84.47082328025117 0 0 0 0
395 2 1 0.954929658551372 77.38260146633435 86.76795326503401 0 0 0 0
396 1 1 1.909859317102744 78.54352500052677 86.79707467498028 0 0 0 0
398 2 1 0.954929658551372 81.29033992604235 84.25257064475909 0 0 0 0
387 1 1 1.909859317102744 79.72891474569101 83.96933481200273 0 0 0 0
389 1 1 1.909859317102744 82.71093221970688 85.83676629150285 0 0 0 0
397 1 1 1.909859317102744 80.65147388556954 86.22381343691498 0 0 0 0
151 2 1 0.954929658551372 86.73290387006199 79.2080621747122 0 -1 0 0
169 2 1 0.954929658551372 70.77072689493357 78.55892411346076 0 0 0 0
219 1 1 1.909859317102744 86.41277975811556 86.72138139072176 0 0 -1 0
204 1 1 1.909859317102744 76.05990012480396 85.77949326082418 0 0 -1 0
218 1 1 1.909859317102744 80.55287001668265 87.33353801959382 0 0 -1 0
307 1 1 1.909859317102744 81.15656375169135 72.29055857474923 0 0 0 0
182 1 1 1.909859317102744 87.0973929217665 82.55881967411327 0 -1 0 0
214 1 1 1.909859317102744 76.30824457840853 86.93558829359243 0 0 -1 0
217 1 1 1.909859317102744 82.72788969453354 87.42587185490181 0 0 -1 0
288 1 1 1.909859317102744 81.41603386139457 70.93508302325516 0 0 0 0
297 1 1 1.909859317102744 80.23112970930597 70.82387818371083 0 0 0 0
132 1 1 1.909859317102744 87.4614299681765 76.56539526078815 0 -1 0 0
206 1 1 1.909859317102744 79.5609443317843 87.43406208486012 0 0 -1 0
216 2 1 0.954929658551372 81.66011215890049 87.21999344099669 0 0 -1 0

Velocities

1 0.2549514282162693 1.0539767386972814 0 0 0 0
11 1.2099712506672946 0.5400493800981424 0 0 0 0
12 -0.003581500576164838 0.6669572677973111 0 0 0 0
13 -0.18859779090679105 -1.3575605638653323 0 0 0 0
5 0.7941533348188093 -0.7025617733819174 0 0 0 0
14 -1.3862543862893075 -1.4306786619066094 0 0 0 0.6351755831587553
23 -0.15085105794656323 0.03227770061347117 0 0 0 0
24 2.034670976822364 1.110576137733211 0 0 0 0
15 -0.6736879205044728 -0.4807069943321796 0 0 0 0
16 0.16138379474033002 -0.13197906697585915 0 0 0 0
17 2.509033622454365 -0.7747883289198098 0 0 0 0
18 1.005946159394 -1.1103987187474065 0 0 0 0
28 1.1830664262240325 2.306565469104971 0 0 0 0
29 -1.6181177808120972 0.4941300045405051 0 0 0 -1.3569913955539818
116 1.8074966604934073 0.443488334833954 0 0 0 0
231 -0.5989314518617087 0.4178229129208187 0 0 0 0
19 1.1990406432192984 -0.02517387538251397 0 0 0 0
20 -2.319969820056533 -1.2264461035396113 0 0 0 0
197 -1.378508529939526 -1.588390859102731 0 0 0 0
22 0.9917443055576103 1.171886904043845 0 0 0 0
31 0.3527022891479571 -2.8789688279758514 0 0 0 0
32 -0.8972044553883987 3.251317987971453 0 0 0 0
41 -1.014279583663362 0.09804029847222315 0 0 0 0
25 -0.6392491084686966 -1.1183208200465955 0 0 0 0
33 1.0501191908230663 0.31798205026512805 0 0 0 0
34 0.7037566818885322 0.24817288284441724 0 0 0 0
43 0.43469678890456 0.9663444044796727 0 0 0 0
44 0.1322707368525179 0.7087816026234712 0 0 0 0
26 -2.470379079083233 -0.35162518602851656 0 0 0 0
27 0.2775562612432862 0.8688845630359523 0 0 0 0
35 1.1531088762136052 1.3204863819678188 0 0 0 0
36 0.771983573415342 0.09648493724604722 0 0 0 0
47 -0.43385880229554613 0.31990142776810626 0 0 0 0
37 1.4071227922104534 -0.6229268663641222 0 0 0 2.402493435663303