LAMMPS (29 Aug 2024 - Development - patch_29Aug2024-427-g024f2059b2-modified)
KOKKOS mode with Kokkos version 4.3.1 is enabled (../kokkos.cpp:72)
  will use up to 1 GPU(s) per node
  using 2 OpenMP thread(s) per MPI task
package kokkos
package kokkos comm no
variable number	equal 2
variable ofreq	equal 1000
variable efreq	equal 1000
variable T      equal 0.1

units lj

dimension 3

newton on

boundary  p p p

atom_style hybrid/kk bond/kk ellipsoid/kk oxdna/kk
WARNING: Atom style hybrid defines both, per-type and per-atom masses; both must be set, but only per-atom masses will be used (../atom_vec_hybrid.cpp:132)
atom_modify sort 0 1.0

# Pair interactions require lists of neighbours to be calculated
neighbor 2.0 bin
neigh_modify every 1 delay 0 check yes

read_data data.duplex2
Reading data file ...
  orthogonal box = (-20 -20 -20) to (20 20 20)
  1 by 1 by 1 MPI processor grid
  reading atoms ...
  16 atoms
  reading velocities ...
  16 velocities
  scanning bonds ...
  1 = max bonds/atom
  16 ellipsoids
  orthogonal box = (-20 -20 -20) to (20 20 20)
  1 by 1 by 1 MPI processor grid
  reading bonds ...
  13 bonds
Finding 1-2 1-3 1-4 neighbors ...
  special bond factors lj:    0        0        0       
  special bond factors coul:  0        0        0       
     2 = max # of 1-2 neighbors
     2 = max # of 1-3 neighbors
     4 = max # of 1-4 neighbors
     6 = max # of special neighbors
  special bonds CPU = 0.001 seconds
  read_data CPU = 0.030 seconds

set atom * mass 3.1575
Setting atom values ...
  16 settings made for mass

group all type 1 4
16 atoms in group all

# oxDNA bond interactions - FENE backbone
bond_style hybrid/kk oxdna/fene/kk harmonic/kk
bond_coeff 1 oxdna/fene/kk 2.0 0.25 0.7564
bond_coeff 2 harmonic/kk 0.0 0.25
special_bonds lj 0 1 1
Finding 1-2 1-3 1-4 neighbors ...
  special bond factors lj:    0        1        1       
  special bond factors coul:  0        0        0       
     2 = max # of 1-2 neighbors
     2 = max # of 1-3 neighbors
     4 = max # of 1-4 neighbors
     6 = max # of special neighbors
  special bonds CPU = 0.001 seconds

# oxDNA pair interactions
pair_style hybrid/overlay/kk oxdna/excv/kk oxdna/stk/kk oxdna/xstk/kk
pair_coeff * * oxdna/excv/kk    2.0 0.7 0.675 2.0 0.515 0.5 2.0 0.33 0.32
pair_coeff * * oxdna/stk/kk     seqav ${T} 1.3448 2.6568 6.0 0.4 0.9 0.32 0.75 1.3 0 0.8 0.9 0 0.95 0.9 0 0.95 2.0 0.65 2.0 0.65
pair_coeff * * oxdna/stk/kk     seqav 0.1 1.3448 2.6568 6.0 0.4 0.9 0.32 0.75 1.3 0 0.8 0.9 0 0.95 0.9 0 0.95 2.0 0.65 2.0 0.65
# hbond/kk
pair_coeff * * oxdna/xstk/kk    47.5 0.575 0.675 0.495 0.655 2.25 0.791592653589793 0.58 1.7 1.0 0.68 1.7 1.0 0.68 1.5 0 0.65 1.7 0.875 0.68 1.7 0.875 0.68

# NVE ensemble
fix 1 all nve/asphere
#fix 2 all langevin ${T} ${T} 2.5 457145 angmom 10

timestep 1e-5

#comm_style tiled
fix 3 all balance 1000 1.03 shift xyz 10 1.03
comm_modify cutoff 3.8

compute quat all property/atom quatw quati quatj quatk

compute erot all erotate/asphere
compute ekin all ke
compute epot all pe

variable erot equal c_erot
variable ekin equal c_ekin
variable epot equal c_epot
variable etot equal c_erot+c_ekin+c_epot

#compute ebond all bond
compute eexcv all pair oxdna/excv/kk
compute estk all pair oxdna/stk/kk
compute exstk all pair oxdna/xstk/kk

#variable ebond equal c_ebond[1]
variable eexcv equal c_eexcv
variable estk equal c_estk
variable exstk equal c_exstk

fix 5 all print ${efreq} "$(step)  ekin = ${ekin} |  erot = ${erot} | epot = ${epot} | ebond = BLANK | eexcv = ${eexcv} | estk = ${estk} | exstk = ${exstk} | etot = ${etot}" screen yes
fix 5 all print 1000 "$(step)  ekin = ${ekin} |  erot = ${erot} | epot = ${epot} | ebond = BLANK | eexcv = ${eexcv} | estk = ${estk} | exstk = ${exstk} | etot = ${etot}" screen yes

dump out all custom ${ofreq} out.${number}.lammpstrj id mol type x y z ix iy iz vx vy vz c_quat[1] c_quat[2] c_quat[3] c_quat[4] angmomx angmomy angmomz
dump out all custom 1000 out.${number}.lammpstrj id mol type x y z ix iy iz vx vy vz c_quat[1] c_quat[2] c_quat[3] c_quat[4] angmomx angmomy angmomz
dump out all custom 1000 out.2.lammpstrj id mol type x y z ix iy iz vx vy vz c_quat[1] c_quat[2] c_quat[3] c_quat[4] angmomx angmomy angmomz
dump_modify out sort id
dump_modify out format line "%d %d %d  %22.15le %22.15le %22.15le  %d %d %d  %22.15le %22.15le %22.15le  %22.15le %22.15le %22.15le %22.15le  %22.15le %22.15le %22.15le"

run_style verlet/kk
run 100000

CITE-CITE-CITE-CITE-CITE-CITE-CITE-CITE-CITE-CITE-CITE-CITE-CITE

Your simulation uses code contributions which should be cited:

- Type Label Framework: https://doi.org/10.1021/acs.jpcb.3c08419

@Article{Gissinger24,
 author = {Jacob R. Gissinger, Ilia Nikiforov, Yaser Afshar, Brendon Waters, Moon-ki Choi, Daniel S. Karls, Alexander Stukowski, Wonpil Im, Hendrik Heinz, Axel Kohlmeyer, and Ellad B. Tadmor},
 title = {Type Label Framework for Bonded Force Fields in LAMMPS},
 journal = {J. Phys. Chem. B},
 year =    2024,
 volume =  128,
 number =  13,
 pages =   {3282–-3297}
}

CITE-CITE-CITE-CITE-CITE-CITE-CITE-CITE-CITE-CITE-CITE-CITE-CITE

Generated 0 of 6 mixed pair_coeff terms from geometric mixing rule
Neighbor list info ...
  update: every = 1 steps, delay = 0 steps, check = yes
  max neighbors/atom: 2000, page size: 100000
  master list distance cutoff = 2.9560004
  ghost atom cutoff = 3.8
  binsize = 2.9560004, bins = 14 14 14
  3 neighbor lists, perpetual/occasional/extra = 3 0 0
  (1) pair oxdna/excv/kk, perpetual
      attributes: full, newton on, kokkos_device
      pair build: full/bin/kk/device
      stencil: full/bin/3d
      bin: kk/device
  (2) pair oxdna/stk/kk, perpetual, copy from (1)
      attributes: full, newton on, kokkos_device
      pair build: copy/kk/device
      stencil: none
      bin: none
  (3) pair oxdna/xstk/kk, perpetual, copy from (1)
      attributes: full, newton on, kokkos_device
      pair build: copy/kk/device
      stencil: none
      bin: none
0  ekin = 2.70475393009871 |  erot = 2.80172072918779 | epot = -16.9138392989234 | ebond = BLANK | eexcv = 0 | estk = -15.2193008759655 | exstk = -1.95717055370069 | etot = -11.4073646396369
Per MPI rank memory allocation (min/avg/max) = 9.372 | 9.372 | 9.372 Mbytes
   Step          Temp          E_pair         E_mol          TotEng         Press          Volume    
         0   0.12021129    -1.0735295      0.016414508   -0.88806784    -2.109887e-05   64000        
1000  ekin = 2.63731271172948 |  erot = 2.76870802191803 | epot = -16.8078105527093 | ebond = BLANK | eexcv = 0 | estk = -15.1169300302504 | exstk = -1.95121160564641 | etot = -11.4017898190618
2000  ekin = 2.56838608206043 |  erot = 2.73608067319151 | epot = -16.6974907734871 | ebond = BLANK | eexcv = 0 | estk = -15.009478846141 | exstk = -1.94876442691246 | etot = -11.3930240182351
3000  ekin = 2.49959878109526 |  erot = 2.70516133027181 | epot = -16.5854527535859 | ebond = BLANK | eexcv = 0 | estk = -14.898444676186 | exstk = -1.95057275542737 | etot = -11.3806926422189
4000  ekin = 2.43260818341194 |  erot = 2.67717868175016 | epot = -16.4743957921632 | ebond = BLANK | eexcv = 0 | estk = -14.7856729285306 | exstk = -1.95710737569201 | etot = -11.3646089270011
5000  ekin = 2.36909764259134 |  erot = 2.65317252843589 | epot = -16.3670895213952 | ebond = BLANK | eexcv = 0 | estk = -14.6733773720082 | exstk = -1.96850384568753 | etot = -11.3448193503679
6000  ekin = 2.31069306929299 |  erot = 2.63385429912235 | epot = -16.2661829506282 | ebond = BLANK | eexcv = 0 | estk = -14.5640042135367 | exstk = -1.98452220939659 | etot = -11.3216355822128
7000  ekin = 2.25879026530924 |  erot = 2.61942300147349 | epot = -16.173868243151 | ebond = BLANK | eexcv = 0 | estk = -14.459925170895 | exstk = -2.00453234335638 | etot = -11.2956549763683
8000  ekin = 2.21431487988054 |  erot = 2.60936751978527 | epot = -16.0914482274477 | ebond = BLANK | eexcv = 0 | estk = -14.3630067405784 | exstk = -2.02752613059466 | etot = -11.2677658277819
9000  ekin = 2.17748075662359 |  erot = 2.60231985457543 | epot = -16.0189312591882 | ebond = BLANK | eexcv = 0 | estk = -14.274175488011 | exstk = -2.05215980028547 | etot = -11.2391306479892
10000  ekin = 2.14764397540508 |  erot = 2.59604817278041 | epot = -15.954829009558 | ebond = BLANK | eexcv = 0 | estk = -14.193147181676 | exstk = -2.07683399058196 | etot = -11.2111368613725
11000  ekin = 2.12334517555353 |  erot = 2.58766940129608 | epot = -15.8963185452482 | ebond = BLANK | eexcv = 0 | estk = -14.1184725726055 | exstk = -2.09982018738104 | etot = -11.1853039683986
12000  ekin = 2.10427980177667 |  erot = 2.57179851883695 | epot = -15.8397583804893 | ebond = BLANK | eexcv = 0 | estk = -14.0479932124284 | exstk = -2.11934049319285 | etot = -11.1636800598757
13000  ekin = 2.08678145453993 |  erot = 2.54767415397399 | epot = -15.7816643633435 | ebond = BLANK | eexcv = 0 | estk = -13.9795084567775 | exstk = -2.1338697657873 | etot = -11.1472087548296
14000  ekin = 2.06911165320254 |  erot = 2.51382431781362 | epot = -15.7197892085346 | ebond = BLANK | eexcv = 0 | estk = -13.9115446049522 | exstk = -2.14244534356748 | etot = -11.1368532375184
15000  ekin = 2.05034660467189 |  erot = 2.47045544616157 | epot = -15.6538424254011 | ebond = BLANK | eexcv = 0 | estk = -13.8440286185222 | exstk = -2.14473422200317 | etot = -11.1330403745677
16000  ekin = 2.03058137406952 |  erot = 2.41964519309301 | epot = -15.5858110356575 | ebond = BLANK | eexcv = 0 | estk = -13.7785556916415 | exstk = -2.1410939602901 | etot = -11.135584468495
17000  ekin = 2.01087366974294 |  erot = 2.36513277770659 | epot = -15.5197236887399 | ebond = BLANK | eexcv = 0 | estk = -13.7182233814401 | exstk = -2.13250848748877 | etot = -11.1437172412903
18000  ekin = 1.99296757604595 |  erot = 2.31175641450288 | epot = -15.4609461136741 | ebond = BLANK | eexcv = 0 | estk = -13.6671120258596 | exstk = -2.12040577994262 | etot = -11.1562221231253
19000  ekin = 1.97889858637096 |  erot = 2.26468476856781 | epot = -15.4152248294852 | ebond = BLANK | eexcv = 0 | estk = -13.6295867011893 | exstk = -2.10639793282753 | etot = -11.1716414745464
20000  ekin = 1.97059784003626 |  erot = 2.22862729753123 | epot = -15.3877323856707 | ebond = BLANK | eexcv = 0 | estk = -13.609613153022 | exstk = -2.09200372523502 | etot = -11.1885072481032
21000  ekin = 1.96958902410437 |  erot = 2.20718488736309 | epot = -15.3823179701491 | ebond = BLANK | eexcv = 0 | estk = -13.6102306518859 | exstk = -2.07841443947584 | etot = -11.2055440586817
22000  ekin = 1.97682478439855 |  erot = 2.20244044041249 | epot = -15.4010714339003 | ebond = BLANK | eexcv = 0 | estk = -13.6332454225483 | exstk = -2.06634785835315 | etot = -11.2218062090893
23000  ekin = 1.99266285575329 |  erot = 2.21482055999256 | epot = -15.4442130666225 | ebond = BLANK | eexcv = 0 | estk = -13.6791372254763 | exstk = -2.05601124766297 | etot = -11.2367296508767
24000  ekin = 2.01714698491021 |  erot = 2.24350107687583 | epot = -15.5102337063571 | ebond = BLANK | eexcv = 0 | estk = -13.7471101751019 | exstk = -2.04716857233482 | etot = -11.249585644571
25000  ekin = 2.04953042526696 |  erot = 2.28571939159401 | epot = -15.5962773242471 | ebond = BLANK | eexcv = 0 | estk = -13.8352962607159 | exstk = -2.03929680829407 | etot = -11.2610275073862
26000  ekin = 2.08911523313194 |  erot = 2.33832080558622 | epot = -15.6986009461738 | ebond = BLANK | eexcv = 0 | estk = -13.9409988810974 | exstk = -2.03177907314816 | etot = -11.2711649074556
27000  ekin = 2.13536122751323 |  erot = 2.3986928950563 | epot = -15.8135785403239 | ebond = BLANK | eexcv = 0 | estk = -14.060911170524 | exstk = -2.02466911806863 | etot = -11.2795244177544
28000  ekin = 2.188059277706 |  erot = 2.46791447617844 | epot = -15.9395317977877 | ebond = BLANK | eexcv = 0 | estk = -14.1913771361 | exstk = -2.02023849053018 | etot = -11.2835580439033
29000  ekin = 2.24512289883341 |  erot = 2.54272839060122 | epot = -16.0716659612787 | ebond = BLANK | eexcv = 0 | estk = -14.32850610425 | exstk = -2.01778514319139 | etot = -11.2838146718441
30000  ekin = 2.30430544269498 |  erot = 2.61912701562409 | epot = -16.2047541458128 | ebond = BLANK | eexcv = 0 | estk = -14.4682557389463 | exstk = -2.01622943348188 | etot = -11.2813216874938
31000  ekin = 2.36344113822996 |  erot = 2.6932082845605 | epot = -16.333757627373 | ebond = BLANK | eexcv = 0 | estk = -14.6065654841677 | exstk = -2.01459433209624 | etot = -11.2771082045826
32000  ekin = 2.42045121808873 |  erot = 2.76131163720899 | epot = -16.453958130829 | ebond = BLANK | eexcv = 0 | estk = -14.7394741229788 | exstk = -2.01201653690363 | etot = -11.2721952755313
33000  ekin = 2.47335970349738 |  erot = 2.82012577577918 | epot = -16.5610752362373 | ebond = BLANK | eexcv = 0 | estk = -14.8632362521177 | exstk = -2.00774736260726 | etot = -11.2675897569607
34000  ekin = 2.52034344318736 |  erot = 2.86679623661366 | epot = -16.6514064876833 | ebond = BLANK | eexcv = 0 | estk = -14.9744599504758 | exstk = -2.00115909732625 | etot = -11.2642668078823
35000  ekin = 2.55983561497527 |  erot = 2.89902860673839 | epot = -16.7220050814884 | ebond = BLANK | eexcv = 0 | estk = -15.070287733226 | exstk = -1.99174979967932 | etot = -11.2631408597747
36000  ekin = 2.59068795773819 |  erot = 2.91525687254753 | epot = -16.770948934518 | ebond = BLANK | eexcv = 0 | estk = -15.1486331418317 | exstk = -1.9791879470606 | etot = -11.2650041042323
37000  ekin = 2.61237482123264 |  erot = 2.91483330001574 | epot = -16.7976600685073 | ebond = BLANK | eexcv = 0 | estk = -15.2084634865231 | exstk = -1.96336507675127 | etot = -11.2704519472589
38000  ekin = 2.62738769244159 |  erot = 2.89224106144923 | epot = -16.8033694258648 | ebond = BLANK | eexcv = 0 | estk = -15.2502306364195 | exstk = -1.94444207422626 | etot = -11.283740671974
39000  ekin = 2.63659850587437 |  erot = 2.85304287193376 | epot = -16.7915713837407 | ebond = BLANK | eexcv = 0 | estk = -15.2761988097424 | exstk = -1.92298882716934 | etot = -11.3019300059325
40000  ekin = 2.64173367494803 |  erot = 2.80243945206594 | epot = -16.7673880132705 | ebond = BLANK | eexcv = 0 | estk = -15.2899281491103 | exstk = -1.89991620493582 | etot = -11.3232148862565
41000  ekin = 2.64583165470504 |  erot = 2.74475543086669 | epot = -16.7373421959039 | ebond = BLANK | eexcv = 0 | estk = -15.2962384164399 | exstk = -1.8763033905528 | etot = -11.3467551103322
42000  ekin = 2.65758505055853 |  erot = 2.67765744448867 | epot = -16.7087015479824 | ebond = BLANK | eexcv = 0 | estk = -15.3010810716746 | exstk = -1.85287392237621 | etot = -11.3734590529352
43000  ekin = 2.67472452995013 |  erot = 2.61286745862393 | epot = -16.6883975229237 | ebond = BLANK | eexcv = 0 | estk = -15.3101297174055 | exstk = -1.83037140669762 | etot = -11.4008055343496
44000  ekin = 2.69971605784171 |  erot = 2.5544873473702 | epot = -16.6818603867931 | ebond = BLANK | eexcv = 0 | estk = -15.3273018746602 | exstk = -1.80991946751121 | etot = -11.4276569815812
45000  ekin = 2.7337747276858 |  erot = 2.50540498334149 | epot = -16.6921145369676 | ebond = BLANK | eexcv = 0 | estk = -15.3543997266885 | exstk = -1.79247565687272 | etot = -11.4529348259403
46000  ekin = 2.77656774566102 |  erot = 2.46699275350667 | epot = -16.7192576197342 | ebond = BLANK | eexcv = 0 | estk = -15.3906907280787 | exstk = -1.77874588426006 | etot = -11.4756971205665
47000  ekin = 2.82230004263688 |  erot = 2.44086313261936 | epot = -16.7603808062957 | ebond = BLANK | eexcv = 0 | estk = -15.4329467584134 | exstk = -1.76909452432784 | etot = -11.4972176310395
48000  ekin = 2.87132105190667 |  erot = 2.4229568800011 | epot = -16.810313992835 | ebond = BLANK | eexcv = 0 | estk = -15.4761414554083 | exstk = -1.76360257482548 | etot = -11.5160360609272
49000  ekin = 2.92177240774313 |  erot = 2.41103523042499 | epot = -16.8634845105766 | ebond = BLANK | eexcv = 0 | estk = -15.5148069334669 | exstk = -1.76248962638341 | etot = -11.5306768724085
50000  ekin = 2.96974379814819 |  erot = 2.40400863474312 | epot = -16.914182374228 | ebond = BLANK | eexcv = 0 | estk = -15.543658713505 | exstk = -1.76578760375256 | etot = -11.5404299413367
51000  ekin = 3.011817560582 |  erot = 2.39838856578291 | epot = -16.9561980930985 | ebond = BLANK | eexcv = 0 | estk = -15.5584461113536 | exstk = -1.77211759063706 | etot = -11.5459919667336
52000  ekin = 3.0455354917315 |  erot = 2.39128698826161 | epot = -16.9848568734666 | ebond = BLANK | eexcv = 0 | estk = -15.5565008126807 | exstk = -1.78015580671696 | etot = -11.5480343934735
53000  ekin = 3.06951468209743 |  erot = 2.38073476973333 | epot = -16.9973439290815 | ebond = BLANK | eexcv = 0 | estk = -15.5368936059947 | exstk = -1.78877638830262 | etot = -11.5470944772507
54000  ekin = 3.08345944801678 |  erot = 2.36582237823282 | epot = -16.9927773138193 | ebond = BLANK | eexcv = 0 | estk = -15.5003428710318 | exstk = -1.79718633417953 | etot = -11.5434954875697
55000  ekin = 3.08813489994189 |  erot = 2.34671911109732 | epot = -16.9721182649847 | ebond = BLANK | eexcv = 0 | estk = -15.4489828301681 | exstk = -1.80503600589216 | etot = -11.5372642539455
56000  ekin = 3.0852371693273 |  erot = 2.32460643807735 | epot = -16.9379223387593 | ebond = BLANK | eexcv = 0 | estk = -15.3860768654789 | exstk = -1.81242470402661 | etot = -11.5280787313547
57000  ekin = 3.0731439789067 |  erot = 2.29966373107726 | epot = -16.8910818934769 | ebond = BLANK | eexcv = 0 | estk = -15.3156938361727 | exstk = -1.81693676589083 | etot = -11.5182741834929
58000  ekin = 3.04843914079323 |  erot = 2.27075064491094 | epot = -16.831318452564 | ebond = BLANK | eexcv = 0 | estk = -15.2423783539304 | exstk = -1.81444266636195 | etot = -11.5121286668598
59000  ekin = 3.01315063000636 |  erot = 2.23938169075611 | epot = -16.762728281096 | ebond = BLANK | eexcv = 0 | estk = -15.1710257461616 | exstk = -1.80474328171277 | etot = -11.5101959603335
60000  ekin = 2.97012227368738 |  erot = 2.20785010638381 | epot = -16.6903919079881 | ebond = BLANK | eexcv = 0 | estk = -15.1065854302161 | exstk = -1.78845263349521 | etot = -11.5124195279169
61000  ekin = 2.9226846205293 |  erot = 2.1789081633868 | epot = -16.6197926614928 | ebond = BLANK | eexcv = 0 | estk = -15.0536267366617 | exstk = -1.76683408157423 | etot = -11.5181998775767
62000  ekin = 2.87304629751395 |  erot = 2.15524307566708 | epot = -16.5554709930656 | ebond = BLANK | eexcv = 0 | estk = -15.0158289218622 | exstk = -1.74095426315371 | etot = -11.5271816198846
63000  ekin = 2.823007295126 |  erot = 2.13884703905299 | epot = -16.5007916834507 | ebond = BLANK | eexcv = 0 | estk = -14.9954849429838 | exstk = -1.71194173489654 | etot = -11.5389373492717
64000  ekin = 2.77443798487515 |  erot = 2.13100542330055 | epot = -16.4580364016147 | ebond = BLANK | eexcv = 0 | estk = -14.9932559491239 | exstk = -1.68132299949451 | etot = -11.5525929934389
65000  ekin = 2.72836430152185 |  erot = 2.13221807503174 | epot = -16.4278754763947 | ebond = BLANK | eexcv = 0 | estk = -15.0081374150603 | exstk = -1.65052977823509 | etot = -11.5672930998411
66000  ekin = 2.68496497853084 |  erot = 2.14226464800572 | epot = -16.4095148414435 | ebond = BLANK | eexcv = 0 | estk = -15.0377120640004 | exstk = -1.62079746091741 | etot = -11.5822852149069
67000  ekin = 2.64375654777886 |  erot = 2.16043717359145 | epot = -16.4011577043308 | ebond = BLANK | eexcv = 0 | estk = -15.07866563185 | exstk = -1.59311773681847 | etot = -11.5969639829605
68000  ekin = 2.60391954850097 |  erot = 2.18585117514441 | epot = -16.4006521564469 | ebond = BLANK | eexcv = 0 | estk = -15.1274504583598 | exstk = -1.56823181245395 | etot = -11.6108814328015
69000  ekin = 2.56462886895649 |  erot = 2.21781921498125 | epot = -16.4061751564377 | ebond = BLANK | eexcv = 0 | estk = -15.1809328845475 | exstk = -1.54667938063462 | etot = -11.6237270725
70000  ekin = 2.5253730542383 |  erot = 2.25616301772561 | epot = -16.4167659517683 | ebond = BLANK | eexcv = 0 | estk = -15.2368563727465 | exstk = -1.52888561633967 | etot = -11.6352298798044
71000  ekin = 2.48601324683848 |  erot = 2.30115005943362 | epot = -16.4323897147751 | ebond = BLANK | eexcv = 0 | estk = -15.293983084569 | exstk = -1.51510612104415 | etot = -11.645226408503
72000  ekin = 2.44684215660478 |  erot = 2.35289180698241 | epot = -16.4535752722831 | ebond = BLANK | eexcv = 0 | estk = -15.3519561114055 | exstk = -1.50523468374101 | etot = -11.6538413086959
73000  ekin = 2.4085709146385 |  erot = 2.41138571751002 | epot = -16.4811871883279 | ebond = BLANK | eexcv = 0 | estk = -15.4108590607669 | exstk = -1.49905277211651 | etot = -11.6612305561794
74000  ekin = 2.381368409875 |  erot = 2.44667592423024 | epot = -16.4959816200904 | ebond = BLANK | eexcv = 0.0199304112902771 | estk = -15.4710098604183 | exstk = -1.49583068525648 | etot = -11.6679372859851
75000  ekin = 2.40838949791113 |  erot = 2.45621849658719 | epot = -16.540719190457 | ebond = BLANK | eexcv = 0.01803745851941 | estk = -15.534467746239 | exstk = -1.49301009835111 | etot = -11.6761111959586
76000  ekin = 2.42096802477234 |  erot = 2.50333112061574 | epot = -16.6099238049503 | ebond = BLANK | eexcv = 0 | estk = -15.6007313527074 | exstk = -1.49057134183322 | etot = -11.6856246595622
77000  ekin = 2.39765584890228 |  erot = 2.57377055386698 | epot = -16.6657751105411 | ebond = BLANK | eexcv = 0 | estk = -15.6642810722339 | exstk = -1.49049768223244 | etot = -11.6943487077718
78000  ekin = 2.37562311912156 |  erot = 2.64417949396203 | epot = -16.7216224089746 | ebond = BLANK | eexcv = 0 | estk = -15.7202441734426 | exstk = -1.49283734576521 | etot = -11.701819795891
79000  ekin = 2.35119575862294 |  erot = 2.71125441766474 | epot = -16.7702868860425 | ebond = BLANK | eexcv = 0.00237574048225954 | estk = -15.7641433763806 | exstk = -1.49728506685617 | etot = -11.7078367097548
80000  ekin = 2.24422636410619 |  erot = 2.81398013347695 | epot = -16.7694927877324 | ebond = BLANK | eexcv = 0.0467212719292599 | estk = -15.7919661771714 | exstk = -1.50550637100028 | etot = -11.7112862901492
81000  ekin = 2.20831463322437 |  erot = 2.9319921679985 | epot = -16.8509439963409 | ebond = BLANK | eexcv = 0 | estk = -15.8004224732365 | exstk = -1.52009823886081 | etot = -11.7106371951181
82000  ekin = 2.19677096610798 |  erot = 2.96662801857305 | epot = -16.8708384820816 | ebond = BLANK | eexcv = 0 | estk = -15.7885077904582 | exstk = -1.53670130783011 | etot = -11.7074394974006
83000  ekin = 2.18342954949389 |  erot = 2.98644113847863 | epot = -16.8729882620705 | ebond = BLANK | eexcv = 0 | estk = -15.7567659406468 | exstk = -1.55268803310287 | etot = -11.703117574098
84000  ekin = 2.16782132412285 |  erot = 2.99024605177341 | epot = -16.8566728090506 | ebond = BLANK | eexcv = 0 | estk = -15.7068108755305 | exstk = -1.5666689457887 | etot = -11.6986054331544
85000  ekin = 2.14984746552946 |  erot = 2.97771967941367 | epot = -16.8223089855033 | ebond = BLANK | eexcv = 0 | estk = -15.6412329606568 | exstk = -1.57744864838943 | etot = -11.6947418405601
86000  ekin = 2.12957149389625 |  erot = 2.9492692275427 | epot = -16.7712664831573 | ebond = BLANK | eexcv = 0 | estk = -15.5633066639123 | exstk = -1.58408452844379 | etot = -11.6924257617183
87000  ekin = 2.10728349919136 |  erot = 2.90601675701711 | epot = -16.7057302685596 | ebond = BLANK | eexcv = 0 | estk = -15.476749473142 | exstk = -1.58595124443358 | etot = -11.6924300123511
88000  ekin = 2.08420763237565 |  erot = 2.8503643199396 | epot = -16.6286085538813 | ebond = BLANK | eexcv = 0 | estk = -15.3855262167108 | exstk = -1.58281078667311 | etot = -11.694036601566
89000  ekin = 2.06146644662448 |  erot = 2.78507129748374 | epot = -16.5432938122702 | ebond = BLANK | eexcv = 0 | estk = -15.2936491899045 | exstk = -1.57474432436366 | etot = -11.696756068162
90000  ekin = 2.03990527456765 |  erot = 2.71227598444044 | epot = -16.4534340688503 | ebond = BLANK | eexcv = 0 | estk = -15.2049699837799 | exstk = -1.56213175754231 | etot = -11.7012528098422
91000  ekin = 2.02137624739197 |  erot = 2.63656299359857 | epot = -16.3626534220262 | ebond = BLANK | eexcv = 0 | estk = -15.1229366347183 | exstk = -1.54560102404518 | etot = -11.7047141810357
92000  ekin = 2.00722127102841 |  erot = 2.56207749359598 | epot = -16.2739706576585 | ebond = BLANK | eexcv = 0 | estk = -15.050195604597 | exstk = -1.5258320415087 | etot = -11.7046718930341
93000  ekin = 1.99641347615145 |  erot = 2.48834550297016 | epot = -16.1899687573173 | ebond = BLANK | eexcv = 0 | estk = -14.9885139018868 | exstk = -1.50381222215356 | etot = -11.7052097781957
94000  ekin = 1.98921393039353 |  erot = 2.41711193720274 | epot = -16.1123773699467 | ebond = BLANK | eexcv = 0 | estk = -14.9385102685497 | exstk = -1.48069081086703 | etot = -11.7060515023505
95000  ekin = 1.98514753574144 |  erot = 2.34697723415045 | epot = -16.0417930647025 | ebond = BLANK | eexcv = 0 | estk = -14.8995169692671 | exstk = -1.45764921801632 | etot = -11.7096682948106
96000  ekin = 1.98423231513194 |  erot = 2.28063116331105 | epot = -15.9777932640311 | ebond = BLANK | eexcv = 0 | estk = -14.8697606267643 | exstk = -1.43582846037102 | etot = -11.7129297855882
97000  ekin = 1.98575899858548 |  erot = 2.21791727886657 | epot = -15.9192012462901 | ebond = BLANK | eexcv = 0 | estk = -14.8466852513038 | exstk = -1.4162726070405 | etot = -11.715524968838
98000  ekin = 1.98889186841238 |  erot = 2.15831988955522 | epot = -15.8643996263588 | ebond = BLANK | eexcv = 0 | estk = -14.8273324087978 | exstk = -1.3998822493375 | etot = -11.7171878683913
99000  ekin = 1.99282749351293 |  erot = 2.10122455173894 | epot = -15.811749260602 | ebond = BLANK | eexcv = 0 | estk = -14.808800832342 | exstk = -1.38738643149694 | etot = -11.7176972153502
100000  ekin = 1.99693595713699 |  erot = 2.04618806722152 | epot = -15.7599822310675 | ebond = BLANK | eexcv = 0 | estk = -14.7886586121211 | exstk = -1.37933835146555 | etot = -11.716858206709
    100000   0.088752709   -1.0104998      0.025500921   -0.86019039    -2.4951891e-06  64000        
Loop time of 165.88 on 2 procs for 100000 steps with 16 atoms

Performance: 520.860 tau/day, 602.847 timesteps/s, 9.646 katom-step/s
100.1% CPU use with 1 MPI tasks x 2 OpenMP threads

MPI task timing breakdown:
Section |  min time  |  avg time  |  max time  |%varavg| %total
---------------------------------------------------------------
Pair    | 125.7      | 125.7      | 125.7      |   0.0 | 75.78
Bond    | 15.243     | 15.243     | 15.243     |   0.0 |  9.19
Neigh   | 0.049351   | 0.049351   | 0.049351   |   0.0 |  0.03
Comm    | 10.279     | 10.279     | 10.279     |   0.0 |  6.20
Output  | 0.0090749  | 0.0090749  | 0.0090749  |   0.0 |  0.01
Modify  | 1.2815     | 1.2815     | 1.2815     |   0.0 |  0.77
Other   |            | 13.32      |            |       |  8.03

Nlocal:             16 ave          16 max          16 min
Histogram: 1 0 0 0 0 0 0 0 0 0
Nghost:              0 ave           0 max           0 min
Histogram: 1 0 0 0 0 0 0 0 0 0
Neighs:              0 ave           0 max           0 min
Histogram: 1 0 0 0 0 0 0 0 0 0
FullNghs:          210 ave         210 max         210 min
Histogram: 1 0 0 0 0 0 0 0 0 0

Total # of neighbors = 210
Ave neighs/atom = 13.125
Ave special neighs/atom = 3.75
Neighbor list builds = 100
Dangerous builds = 0

Total wall time: 0:02:46
