ITEM: TIMESTEP
0
ITEM: NUMBER OF ATOMS
4
ITEM: BOX BOUNDS pp pp pp
-2.0000000000000000e+00 2.0000000000000000e+00
-2.0000000000000000e+00 2.0000000000000000e+00
-5.0000000000000000e+00 5.0000000000000000e+00
ITEM: ATOMS id type x y z quatw quati quatj quatk shapex shapey shapez
4 0 0 0 -1.5 0.923785 0 0 0.382911 0.5 0.5 1
2 0 0 0 -0.5 0.923785 0.382911 0 0 0.5 1 0.5
1 1 0 0 0.5 1 0 0 0 0.5 0.5 1
3 1 0 0 1.5 0.923785 0 0.382911 0 1 0.5 0.5
ITEM: TIMESTEP
1
ITEM: NUMBER OF ATOMS
4
ITEM: BOX BOUNDS pp pp pp
-2.0000000000000000e+00 2.0000000000000000e+00
-2.0000000000000000e+00 2.0000000000000000e+00
-5.0000000000000000e+00 5.0000000000000000e+00
ITEM: ATOMS id type x y z quatw quati quatj quatk shapex shapey shapez
4 0 0 0 -1.49 0.923785 0 0 0.382911 0.5 0.5 1
2 0 0 0 -0.49 0.923785 0.382911 0 0 0.5 1 0.5
1 1 0 0 0.51 1 0 0 0 0.5 0.5 1
3 1 0 0 1.51 0.923785 0 0.382911 0 1 0.5 0.5
ITEM: TIMESTEP
2
ITEM: NUMBER OF ATOMS
4
ITEM: BOX BOUNDS pp pp pp
-2.0000000000000000e+00 2.0000000000000000e+00
-2.0000000000000000e+00 2.0000000000000000e+00
-5.0000000000000000e+00 5.0000000000000000e+00
ITEM: ATOMS id type x y z quatw quati quatj quatk shapex shapey shapez
4 0 0 0 -1.48 0.923785 0 0 0.382911 0.5 0.5 1
2 0 0 0 -0.48 0.923785 0.382911 0 0 0.5 1 0.5
1 1 0 0 0.52 1 0 0 0 0.5 0.5 1
3 1 0 0 1.52 0.923785 0 0.382911 0 1 0.5 0.5
ITEM: TIMESTEP
3
ITEM: NUMBER OF ATOMS
4
ITEM: BOX BOUNDS pp pp pp
-2.0000000000000000e+00 2.0000000000000000e+00
-2.0000000000000000e+00 2.0000000000000000e+00
-5.0000000000000000e+00 5.0000000000000000e+00
ITEM: ATOMS id type x y z quatw quati quatj quatk shapex shapey shapez
4 0 0 0 -1.47 0.923785 0 0 0.382911 0.5 0.5 1
2 0 0 0 -0.47 0.923785 0.382911 0 0 0.5 1 0.5
1 1 0 0 0.53 1 0 0 0 0.5 0.5 1
3 1 0 0 1.53 0.923785 0 0.382911 0 1 0.5 0.5
ITEM: TIMESTEP
4
ITEM: NUMBER OF ATOMS
4
ITEM: BOX BOUNDS pp pp pp
-2.0000000000000000e+00 2.0000000000000000e+00
-2.0000000000000000e+00 2.0000000000000000e+00
-5.0000000000000000e+00 5.0000000000000000e+00
ITEM: ATOMS id type x y z quatw quati quatj quatk shapex shapey shapez
4 0 0 0 -1.46001 0.923785 0 0 0.382911 0.5 0.5 1
2 0 0 0 -0.46 0.923785 0.382911 0 0 0.5 1 0.5
1 1 0 0 0.54 1 0 0 0 0.5 0.5 1
3 1 0 0 1.54001 0.923785 0 0.382911 0 1 0.5 0.5
ITEM: TIMESTEP
5
ITEM: NUMBER OF ATOMS
4
ITEM: BOX BOUNDS pp pp pp
-2.0000000000000000e+00 2.0000000000000000e+00
-2.0000000000000000e+00 2.0000000000000000e+00
-5.0000000000000000e+00 5.0000000000000000e+00
ITEM: ATOMS id type x y z quatw quati quatj quatk shapex shapey shapez
4 0 0 0 -1.45001 0.923785 0 0 0.382911 0.5 0.5 1
2 0 0 0 -0.45 0.923785 0.382911 0 0 0.5 1 0.5
1 1 0 0 0.55 1 0 0 0 0.5 0.5 1
3 1 0 0 1.55001 0.923785 0 0.382911 0 1 0.5 0.5
ITEM: TIMESTEP
6
ITEM: NUMBER OF ATOMS
4
ITEM: BOX BOUNDS pp pp pp
-2.0000000000000000e+00 2.0000000000000000e+00
-2.0000000000000000e+00 2.0000000000000000e+00
-5.0000000000000000e+00 5.0000000000000000e+00
ITEM: ATOMS id type x y z quatw quati quatj quatk shapex shapey shapez
4 0 0 0 -1.44001 0.923785 0 0 0.382911 0.5 0.5 1
2 0 0 0 -0.44 0.923785 0.382911 0 0 0.5 1 0.5
1 1 0 0 0.56 1 0 0 0 0.5 0.5 1
3 1 0 0 1.56001 0.923785 0 0.382911 0 1 0.5 0.5
ITEM: TIMESTEP
7
ITEM: NUMBER OF ATOMS
4
ITEM: BOX BOUNDS pp pp pp
-2.0000000000000000e+00 2.0000000000000000e+00
-2.0000000000000000e+00 2.0000000000000000e+00
-5.0000000000000000e+00 5.0000000000000000e+00
ITEM: ATOMS id type x y z quatw quati quatj quatk shapex shapey shapez
4 0 0 0 -1.43002 0.923785 0 0 0.382911 0.5 0.5 1
2 0 0 0 -0.43 0.923785 0.382911 0 0 0.5 1 0.5
1 1 0 0 0.57 1 0 0 0 0.5 0.5 1
3 1 0 0 1.57002 0.923785 0 0.382911 0 1 0.5 0.5
ITEM: TIMESTEP
8
ITEM: NUMBER OF ATOMS
4
ITEM: BOX BOUNDS pp pp pp
-2.0000000000000000e+00 2.0000000000000000e+00
-2.0000000000000000e+00 2.0000000000000000e+00
-5.0000000000000000e+00 5.0000000000000000e+00
ITEM: ATOMS id type x y z quatw quati quatj quatk shapex shapey shapez
4 0 0 0 -1.42002 0.923785 0 0 0.382911 0.5 0.5 1
2 0 0 0 -0.42 0.923785 0.382911 0 0 0.5 1 0.5
1 1 0 0 0.58 1 0 0 0 0.5 0.5 1
3 1 0 0 1.58002 0.923785 0 0.382911 0 1 0.5 0.5
ITEM: TIMESTEP
9
ITEM: NUMBER OF ATOMS
4
ITEM: BOX BOUNDS pp pp pp
-2.0000000000000000e+00 2.0000000000000000e+00
-2.0000000000000000e+00 2.0000000000000000e+00
-5.0000000000000000e+00 5.0000000000000000e+00
ITEM: ATOMS id type x y z quatw quati quatj quatk shapex shapey shapez
4 0 0 0 -1.41003 0.923785 0 0 0.382911 0.5 0.5 1
2 0 0 0 -0.41 0.923785 0.382911 0 0 0.5 1 0.5
1 1 0 0 0.59 1 0 0 0 0.5 0.5 1
3 1 0 0 1.59003 0.923785 0 0.382911 0 1 0.5 0.5
ITEM: TIMESTEP
10
ITEM: NUMBER OF ATOMS
4
ITEM: BOX BOUNDS pp pp pp
-2.0000000000000000e+00 2.0000000000000000e+00
-2.0000000000000000e+00 2.0000000000000000e+00
-5.0000000000000000e+00 5.0000000000000000e+00
ITEM: ATOMS id type x y z quatw quati quatj quatk shapex shapey shapez
4 0 0 0 -1.40004 0.923785 0 0 0.382911 0.5 0.5 1
2 0 0 0 -0.4 0.923785 0.382911 0 0 0.5 1 0.5
1 1 0 0 0.6 1 0 0 0 0.5 0.5 1
3 1 0 0 1.60004 0.923785 0 0.382911 0 1 0.5 0.5
ITEM: TIMESTEP
11
ITEM: NUMBER OF ATOMS
4
ITEM: BOX BOUNDS pp pp pp
-2.0000000000000000e+00 2.0000000000000000e+00
-2.0000000000000000e+00 2.0000000000000000e+00
-5.0000000000000000e+00 5.0000000000000000e+00
ITEM: ATOMS id type x y z quatw quati quatj quatk shapex shapey shapez
4 0 0 0 -1.39005 0.923785 0 0 0.382911 0.5 0.5 1
2 0 0 0 -0.39 0.923785 0.382911 0 0 0.5 1 0.5
1 1 0 0 0.61 1 0 0 0 0.5 0.5 1
3 1 0 0 1.61005 0.923785 0 0.382911 0 1 0.5 0.5
ITEM: TIMESTEP
12
ITEM: NUMBER OF ATOMS
4
ITEM: BOX BOUNDS pp pp pp
-2.0000000000000000e+00 2.0000000000000000e+00
-2.0000000000000000e+00 2.0000000000000000e+00
-5.0000000000000000e+00 5.0000000000000000e+00
ITEM: ATOMS id type x y z quatw quati quatj quatk shapex shapey shapez
4 0 0 0 -1.38006 0.923785 0 0 0.382911 0.5 0.5 1
2 0 0 0 -0.38 0.923785 0.382911 0 0 0.5 1 0.5
1 1 0 0 0.62 1 0 0 0 0.5 0.5 1
3 1 0 0 1.62006 0.923785 0 0.382911 0 1 0.5 0.5
ITEM: TIMESTEP
13
ITEM: NUMBER OF ATOMS
4
ITEM: BOX BOUNDS pp pp pp
-2.0000000000000000e+00 2.0000000000000000e+00
-2.0000000000000000e+00 2.0000000000000000e+00
-5.0000000000000000e+00 5.0000000000000000e+00
ITEM: ATOMS id type x y z quatw quati quatj quatk shapex shapey shapez
4 0 0 0 -1.37006 0.923785 0 0 0.382911 0.5 0.5 1
2 0 0 0 -0.37 0.923785 0.382911 0 0 0.5 1 0.5
1 1 0 0 0.63 1 0 0 0 0.5 0.5 1
3 1 0 0 1.63006 0.923785 0 0.382911 0 1 0.5 0.5
ITEM: TIMESTEP
14
ITEM: NUMBER OF ATOMS
4
ITEM: BOX BOUNDS pp pp pp
-2.0000000000000000e+00 2.0000000000000000e+00
-2.0000000000000000e+00 2.0000000000000000e+00
-5.0000000000000000e+00 5.0000000000000000e+00
ITEM: ATOMS id type x y z quatw quati quatj quatk shapex shapey shapez
4 0 0 0 -1.36008 0.923785 0 0 0.382911 0.5 0.5 1
2 0 0 0 -0.36 0.923785 0.382911 0 0 0.5 1 0.5
1 1 0 0 0.64 1 0 0 0 0.5 0.5 1
3 1 0 0 1.64008 0.923785 0 0.382911 0 1 0.5 0.5
ITEM: TIMESTEP
15
ITEM: NUMBER OF ATOMS
4
ITEM: BOX BOUNDS pp pp pp
-2.0000000000000000e+00 2.0000000000000000e+00
-2.0000000000000000e+00 2.0000000000000000e+00
-5.0000000000000000e+00 5.0000000000000000e+00
ITEM: ATOMS id type x y z quatw quati quatj quatk shapex shapey shapez
4 0 0 0 -1.35009 0.923785 0 0 0.382911 0.5 0.5 1
2 0 0 0 -0.35 0.923785 0.382911 0 0 0.5 1 0.5
1 1 0 0 0.65 1 0 0 0 0.5 0.5 1
3 1 0 0 1.65009 0.923785 0 0.382911 0 1 0.5 0.5
ITEM: TIMESTEP
16
ITEM: NUMBER OF ATOMS
4
ITEM: BOX BOUNDS pp pp pp
-2.0000000000000000e+00 2.0000000000000000e+00
-2.0000000000000000e+00 2.0000000000000000e+00
-5.0000000000000000e+00 5.0000000000000000e+00
ITEM: ATOMS id type x y z quatw quati quatj quatk shapex shapey shapez
4 0 0 0 -1.3401 0.923785 0 0 0.382911 0.5 0.5 1
2 0 0 0 -0.34 0.923785 0.382911 0 0 0.5 1 0.5
1 1 0 0 0.66 1 0 0 0 0.5 0.5 1
3 1 0 0 1.6601 0.923785 0 0.382911 0 1 0.5 0.5
ITEM: TIMESTEP
17
ITEM: NUMBER OF ATOMS
4
ITEM: BOX BOUNDS pp pp pp
-2.0000000000000000e+00 2.0000000000000000e+00
-2.0000000000000000e+00 2.0000000000000000e+00
-5.0000000000000000e+00 5.0000000000000000e+00
ITEM: ATOMS id type x y z quatw quati quatj quatk shapex shapey shapez
4 0 0 0 -1.33011 0.923785 0 0 0.382911 0.5 0.5 1
2 0 0 0 -0.33 0.923785 0.382911 0 0 0.5 1 0.5
1 1 0 0 0.67 1 0 0 0 0.5 0.5 1
3 1 0 0 1.67011 0.923785 0 0.382911 0 1 0.5 0.5
ITEM: TIMESTEP
18
ITEM: NUMBER OF ATOMS
4
ITEM: BOX BOUNDS pp pp pp
-2.0000000000000000e+00 2.0000000000000000e+00
-2.0000000000000000e+00 2.0000000000000000e+00
-5.0000000000000000e+00 5.0000000000000000e+00
ITEM: ATOMS id type x y z quatw quati quatj quatk shapex shapey shapez
4 0 0 0 -1.32012 0.923785 0 0 0.382911 0.5 0.5 1
2 0 0 0 -0.32 0.923785 0.382911 0 0 0.5 1 0.5
1 1 0 0 0.68 1 0 0 0 0.5 0.5 1
3 1 0 0 1.68012 0.923785 0 0.382911 0 1 0.5 0.5
ITEM: TIMESTEP
19
ITEM: NUMBER OF ATOMS
4
ITEM: BOX BOUNDS pp pp pp
-2.0000000000000000e+00 2.0000000000000000e+00
-2.0000000000000000e+00 2.0000000000000000e+00
-5.0000000000000000e+00 5.0000000000000000e+00
ITEM: ATOMS id type x y z quatw quati quatj quatk shapex shapey shapez
4 0 0 0 -1.31014 0.923785 0 0 0.382911 0.5 0.5 1
2 0 0 0 -0.31 0.923785 0.382911 0 0 0.5 1 0.5
1 1 0 0 0.69 1 0 0 0 0.5 0.5 1
3 1 0 0 1.69014 0.923785 0 0.382911 0 1 0.5 0.5
ITEM: TIMESTEP
20
ITEM: NUMBER OF ATOMS
4
ITEM: BOX BOUNDS pp pp pp
-2.0000000000000000e+00 2.0000000000000000e+00
-2.0000000000000000e+00 2.0000000000000000e+00
-5.0000000000000000e+00 5.0000000000000000e+00
ITEM: ATOMS id type x y z quatw quati quatj quatk shapex shapey shapez
4 0 0 0 -1.30015 0.923785 0 0 0.382911 0.5 0.5 1
2 0 0 0 -0.3 0.923785 0.382911 0 0 0.5 1 0.5
1 1 0 0 0.7 1 0 0 0 0.5 0.5 1
3 1 0 0 1.70015 0.923785 0 0.382911 0 1 0.5 0.5
ITEM: TIMESTEP
21
ITEM: NUMBER OF ATOMS
4
ITEM: BOX BOUNDS pp pp pp
-2.0000000000000000e+00 2.0000000000000000e+00
-2.0000000000000000e+00 2.0000000000000000e+00
-5.0000000000000000e+00 5.0000000000000000e+00
ITEM: ATOMS id type x y z quatw quati quatj quatk shapex shapey shapez
4 0 0 0 -1.29017 0.923785 0 0 0.382911 0.5 0.5 1
2 0 0 0 -0.29 0.923785 0.382911 0 0 0.5 1 0.5
1 1 0 0 0.71 1 0 0 0 0.5 0.5 1
3 1 0 0 1.71017 0.923785 0 0.382911 0 1 0.5 0.5
ITEM: TIMESTEP
22
ITEM: NUMBER OF ATOMS
4
ITEM: BOX BOUNDS pp pp pp
-2.0000000000000000e+00 2.0000000000000000e+00
-2.0000000000000000e+00 2.0000000000000000e+00
-5.0000000000000000e+00 5.0000000000000000e+00
ITEM: ATOMS id type x y z quatw quati quatj quatk shapex shapey shapez
4 0 0 0 -1.28019 0.923785 0 0 0.382911 0.5 0.5 1
2 0 0 0 -0.28 0.923785 0.382911 0 0 0.5 1 0.5
1 1 0 0 0.72 1 0 0 0 0.5 0.5 1
3 1 0 0 1.72019 0.923785 0 0.382911 0 1 0.5 0.5
ITEM: TIMESTEP
23
ITEM: NUMBER OF ATOMS
4
ITEM: BOX BOUNDS pp pp pp
-2.0000000000000000e+00 2.0000000000000000e+00
-2.0000000000000000e+00 2.0000000000000000e+00
-5.0000000000000000e+00 5.0000000000000000e+00
ITEM: ATOMS id type x y z quatw quati quatj quatk shapex shapey shapez
4 0 0 0 -1.2702 0.923785 0 0 0.382911 0.5 0.5 1
2 0 0 0 -0.27 0.923785 0.382911 0 0 0.5 1 0.5
1 1 0 0 0.73 1 0 0 0 0.5 0.5 1
3 1 0 0 1.7302 0.923785 0 0.382911 0 1 0.5 0.5
ITEM: TIMESTEP
24
ITEM: NUMBER OF ATOMS
4
ITEM: BOX BOUNDS pp pp pp
-2.0000000000000000e+00 2.0000000000000000e+00
-2.0000000000000000e+00 2.0000000000000000e+00
-5.0000000000000000e+00 5.0000000000000000e+00
ITEM: ATOMS id type x y z quatw quati quatj quatk shapex shapey shapez
4 0 0 0 -1.26022 0.923785 0 0 0.382911 0.5 0.5 1
2 0 0 0 -0.26 0.923785 0.382911 0 0 0.5 1 0.5
1 1 0 0 0.74 1 0 0 0 0.5 0.5 1
3 1 0 0 1.74022 0.923785 0 0.382911 0 1 0.5 0.5
ITEM: TIMESTEP
25
ITEM: NUMBER OF ATOMS
4
ITEM: BOX BOUNDS pp pp pp
-2.0000000000000000e+00 2.0000000000000000e+00
-2.0000000000000000e+00 2.0000000000000000e+00
-5.0000000000000000e+00 5.0000000000000000e+00
ITEM: ATOMS id type x y z quatw quati quatj quatk shapex shapey shapez
4 0 0 0 -1.25024 0.923785 0 0 0.382911 0.5 0.5 1
2 0 0 0 -0.25 0.923785 0.382911 0 0 0.5 1 0.5
1 1 0 0 0.75 1 0 0 0 0.5 0.5 1
3 1 0 0 1.75024 0.923785 0 0.382911 0 1 0.5 0.5
ITEM: TIMESTEP
26
ITEM: NUMBER OF ATOMS
4
ITEM: BOX BOUNDS pp pp pp
-2.0000000000000000e+00 2.0000000000000000e+00
-2.0000000000000000e+00 2.0000000000000000e+00
-5.0000000000000000e+00 5.0000000000000000e+00
ITEM: ATOMS id type x y z quatw quati quatj quatk shapex shapey shapez
4 0 0 0 -1.24026 0.923785 0 0 0.382911 0.5 0.5 1
2 0 0 0 -0.24 0.923785 0.382911 0 0 0.5 1 0.5
1 1 0 0 0.76 1 0 0 0 0.5 0.5 1
3 1 0 0 1.76026 0.923785 0 0.382911 0 1 0.5 0.5
ITEM: TIMESTEP
27
ITEM: NUMBER OF ATOMS
4
ITEM: BOX BOUNDS pp pp pp
-2.0000000000000000e+00 2.0000000000000000e+00
-2.0000000000000000e+00 2.0000000000000000e+00
-5.0000000000000000e+00 5.0000000000000000e+00
ITEM: ATOMS id type x y z quatw quati quatj quatk shapex shapey shapez
4 0 0 0 -1.23028 0.923785 0 0 0.382911 0.5 0.5 1
2 0 0 0 -0.23 0.923785 0.382911 0 0 0.5 1 0.5
1 1 0 0 0.77 1 0 0 0 0.5 0.5 1
3 1 0 0 1.77028 0.923785 0 0.382911 0 1 0.5 0.5
ITEM: TIMESTEP
28
ITEM: NUMBER OF ATOMS
4
ITEM: BOX BOUNDS pp pp pp
-2.0000000000000000e+00 2.0000000000000000e+00
-2.0000000000000000e+00 2.0000000000000000e+00
-5.0000000000000000e+00 5.0000000000000000e+00
ITEM: ATOMS id type x y z quatw quati quatj quatk shapex shapey shapez
4 0 0 0 -1.2203 0.923785 0 0 0.382911 0.5 0.5 1
2 0 0 0 -0.22 0.923785 0.382911 0 0 0.5 1 0.5
1 1 0 0 0.78 1 0 0 0 0.5 0.5 1
3 1 0 0 1.7803 0.923785 0 0.382911 0 1 0.5 0.5
ITEM: TIMESTEP
29
ITEM: NUMBER OF ATOMS
4
ITEM: BOX BOUNDS pp pp pp
-2.0000000000000000e+00 2.0000000000000000e+00
-2.0000000000000000e+00 2.0000000000000000e+00
-5.0000000000000000e+00 5.0000000000000000e+00
ITEM: ATOMS id type x y z quatw quati quatj quatk shapex shapey shapez
4 0 0 0 -1.21032 0.923785 0 0 0.382911 0.5 0.5 1
2 0 0 0 -0.21 0.923785 0.382911 0 0 0.5 1 0.5
1 1 0 0 0.79 1 0 0 0 0.5 0.5 1
3 1 0 0 1.79032 0.923785 0 0.382911 0 1 0.5 0.5
ITEM: TIMESTEP
30
ITEM: NUMBER OF ATOMS
4
ITEM: BOX BOUNDS pp pp pp
-2.0000000000000000e+00 2.0000000000000000e+00
-2.0000000000000000e+00 2.0000000000000000e+00
-5.0000000000000000e+00 5.0000000000000000e+00
ITEM: ATOMS id type x y z quatw quati quatj quatk shapex shapey shapez
4 0 0 0 -1.20035 0.923785 0 0 0.382911 0.5 0.5 1
2 0 0 0 -0.2 0.923785 0.382911 0 0 0.5 1 0.5
1 1 0 0 0.8 1 0 0 0 0.5 0.5 1
3 1 0 0 1.80035 0.923785 0 0.382911 0 1 0.5 0.5
ITEM: TIMESTEP
31
ITEM: NUMBER OF ATOMS
4
ITEM: BOX BOUNDS pp pp pp
-2.0000000000000000e+00 2.0000000000000000e+00
-2.0000000000000000e+00 2.0000000000000000e+00
-5.0000000000000000e+00 5.0000000000000000e+00
ITEM: ATOMS id type x y z quatw quati quatj quatk shapex shapey shapez
4 0 0 0 -1.19037 0.923785 0 0 0.382911 0.5 0.5 1
2 0 0 0 -0.19 0.923785 0.382911 0 0 0.5 1 0.5
1 1 0 0 0.81 1 0 0 0 0.5 0.5 1
3 1 0 0 1.81037 0.923785 0 0.382911 0 1 0.5 0.5
ITEM: TIMESTEP
32
ITEM: NUMBER OF ATOMS
4
ITEM: BOX BOUNDS pp pp pp
-2.0000000000000000e+00 2.0000000000000000e+00
-2.0000000000000000e+00 2.0000000000000000e+00
-5.0000000000000000e+00 5.0000000000000000e+00
ITEM: ATOMS id type x y z quatw quati quatj quatk shapex shapey shapez
4 0 0 0 -1.18039 0.923785 0 0 0.382911 0.5 0.5 1
2 0 0 0 -0.18 0.923785 0.382911 0 0 0.5 1 0.5
1 1 0 0 0.82 1 0 0 0 0.5 0.5 1
3 1 0 0 1.82039 0.923785 0 0.382911 0 1 0.5 0.5
ITEM: TIMESTEP
33
ITEM: NUMBER OF ATOMS
4
ITEM: BOX BOUNDS pp pp pp
-2.0000000000000000e+00 2.0000000000000000e+00
-2.0000000000000000e+00 2.0000000000000000e+00
-5.0000000000000000e+00 5.0000000000000000e+00
ITEM: ATOMS id type x y z quatw quati quatj quatk shapex shapey shapez
4 0 0 0 -1.17042 0.923785 0 0 0.382911 0.5 0.5 1
2 0 0 0 -0.170001 0.923785 0.382911 0 0 0.5 1 0.5
1 1 0 0 0.830001 1 0 0 0 0.5 0.5 1
3 1 0 0 1.83042 0.923785 0 0.382911 0 1 0.5 0.5
ITEM: TIMESTEP
34
ITEM: NUMBER OF ATOMS
4
ITEM: BOX BOUNDS pp pp pp
-2.0000000000000000e+00 2.0000000000000000e+00
-2.0000000000000000e+00 2.0000000000000000e+00
-5.0000000000000000e+00 5.0000000000000000e+00
ITEM: ATOMS id type x y z quatw quati quatj quatk shapex shapey shapez
4 0 0 0 -1.16044 0.923785 0 0 0.382911 0.5 0.5 1
2 0 0 0 -0.160001 0.923785 0.382911 0 0 0.5 1 0.5
1 1 0 0 0.840001 1 0 0 0 0.5 0.5 1
3 1 0 0 1.84044 0.923785 0 0.382911 0 1 0.5 0.5
ITEM: TIMESTEP
35
ITEM: NUMBER OF ATOMS
4
ITEM: BOX BOUNDS pp pp pp
-2.0000000000000000e+00 2.0000000000000000e+00
-2.0000000000000000e+00 2.0000000000000000e+00
-5.0000000000000000e+00 5.0000000000000000e+00
ITEM: ATOMS id type x y z quatw quati quatj quatk shapex shapey shapez
4 0 0 0 -1.15047 0.923785 0 0 0.382911 0.5 0.5 1
2 0 0 0 -0.150001 0.923785 0.382911 0 0 0.5 1 0.5
1 1 0 0 0.850001 1 0 0 0 0.5 0.5 1
3 1 0 0 1.85047 0.923785 0 0.382911 0 1 0.5 0.5
ITEM: TIMESTEP
36
ITEM: NUMBER OF ATOMS
4
ITEM: BOX BOUNDS pp pp pp
-2.0000000000000000e+00 2.0000000000000000e+00
-2.0000000000000000e+00 2.0000000000000000e+00
-5.0000000000000000e+00 5.0000000000000000e+00
ITEM: ATOMS id type x y z quatw quati quatj quatk shapex shapey shapez
4 0 0 0 -1.1405 0.923785 0 0 0.382911 0.5 0.5 1
2 0 0 0 -0.140001 0.923785 0.382911 0 0 0.5 1 0.5
1 1 0 0 0.860001 1 0 0 0 0.5 0.5 1
3 1 0 0 1.8605 0.923785 0 0.382911 0 1 0.5 0.5
ITEM: TIMESTEP
37
ITEM: NUMBER OF ATOMS
4
ITEM: BOX BOUNDS pp pp pp
-2.0000000000000000e+00 2.0000000000000000e+00
-2.0000000000000000e+00 2.0000000000000000e+00
-5.0000000000000000e+00 5.0000000000000000e+00
ITEM: ATOMS id type x y z quatw quati quatj quatk shapex shapey shapez
4 0 0 0 -1.13052 0.923785 0 0 0.382911 0.5 0.5 1
2 0 0 0 -0.130001 0.923785 0.382911 0 0 0.5 1 0.5
1 1 0 0 0.870001 1 0 0 0 0.5 0.5 1
3 1 0 0 1.87052 0.923785 0 0.382911 0 1 0.5 0.5
ITEM: TIMESTEP
38
ITEM: NUMBER OF ATOMS
4
ITEM: BOX BOUNDS pp pp pp
-2.0000000000000000e+00 2.0000000000000000e+00
-2.0000000000000000e+00 2.0000000000000000e+00
-5.0000000000000000e+00 5.0000000000000000e+00
ITEM: ATOMS id type x y z quatw quati quatj quatk shapex shapey shapez
4 0 0 0 -1.12055 0.923785 0 0 0.382911 0.5 0.5 1
2 0 0 0 -0.120001 0.923785 0.382911 0 0 0.5 1 0.5
1 1 0 0 0.880001 1 0 0 0 0.5 0.5 1
3 1 0 0 1.88055 0.923785 0 0.382911 0 1 0.5 0.5
ITEM: TIMESTEP
39
ITEM: NUMBER OF ATOMS
4
ITEM: BOX BOUNDS pp pp pp
-2.0000000000000000e+00 2.0000000000000000e+00
-2.0000000000000000e+00 2.0000000000000000e+00
-5.0000000000000000e+00 5.0000000000000000e+00
ITEM: ATOMS id type x y z quatw quati quatj quatk shapex shapey shapez
4 0 0 0 -1.11058 0.923785 0 0 0.382911 0.5 0.5 1
2 0 0 0 -0.110001 0.923785 0.382911 0 0 0.5 1 0.5
1 1 0 0 0.890001 1 0 0 0 0.5 0.5 1
3 1 0 0 1.89058 0.923785 0 0.382911 0 1 0.5 0.5
ITEM: TIMESTEP
40
ITEM: NUMBER OF ATOMS
4
ITEM: BOX BOUNDS pp pp pp
-2.0000000000000000e+00 2.0000000000000000e+00
-2.0000000000000000e+00 2.0000000000000000e+00
-5.0000000000000000e+00 5.0000000000000000e+00
ITEM: ATOMS id type x y z quatw quati quatj quatk shapex shapey shapez
4 0 0 0 -1.10061 0.923785 0 0 0.382911 0.5 0.5 1
2 0 0 0 -0.100001 0.923785 0.382911 0 0 0.5 1 0.5
1 1 0 0 0.900001 1 0 0 0 0.5 0.5 1
3 1 0 0 1.90061 0.923785 0 0.382911 0 1 0.5 0.5
ITEM: TIMESTEP
41
ITEM: NUMBER OF ATOMS
4
ITEM: BOX BOUNDS pp pp pp
-2.0000000000000000e+00 2.0000000000000000e+00
-2.0000000000000000e+00 2.0000000000000000e+00
-5.0000000000000000e+00 5.0000000000000000e+00
ITEM: ATOMS id type x y z quatw quati quatj quatk shapex shapey shapez
4 0 0 0 -1.09064 0.923785 0 0 0.382911 0.5 0.5 1
2 0 0 0 -0.0900013 0.923785 0.382911 0 0 0.5 1 0.5
1 1 0 0 0.910001 1 0 0 0 0.5 0.5 1
3 1 0 0 1.91064 0.923785 0 0.382911 0 1 0.5 0.5
ITEM: TIMESTEP
42
ITEM: NUMBER OF ATOMS
4
ITEM: BOX BOUNDS pp pp pp
-2.0000000000000000e+00 2.0000000000000000e+00
-2.0000000000000000e+00 2.0000000000000000e+00
-5.0000000000000000e+00 5.0000000000000000e+00
ITEM: ATOMS id type x y z quatw quati quatj quatk shapex shapey shapez
4 0 0 0 -1.08068 0.923785 0 0 0.382911 0.5 0.5 1
2 0 0 0 -0.0800014 0.923785 0.382911 0 0 0.5 1 0.5
1 1 0 0 0.920001 1 0 0 0 0.5 0.5 1
3 1 0 0 1.92068 0.923785 0 0.382911 0 1 0.5 0.5
ITEM: TIMESTEP
43
ITEM: NUMBER OF ATOMS
4
ITEM: BOX BOUNDS pp pp pp
-2.0000000000000000e+00 2.0000000000000000e+00
-2.0000000000000000e+00 2.0000000000000000e+00
-5.0000000000000000e+00 5.0000000000000000e+00
ITEM: ATOMS id type x y z quatw quati quatj quatk shapex shapey shapez
4 0 0 0 -1.07071 0.923785 0 0 0.382911 0.5 0.5 1
2 0 0 0 -0.0700016 0.923785 0.382911 0 0 0.5 1 0.5
1 1 0 0 0.930002 1 0 0 0 0.5 0.5 1
3 1 0 0 1.93071 0.923785 0 0.382911 0 1 0.5 0.5
ITEM: TIMESTEP
44
ITEM: NUMBER OF ATOMS
4
ITEM: BOX BOUNDS pp pp pp
-2.0000000000000000e+00 2.0000000000000000e+00
-2.0000000000000000e+00 2.0000000000000000e+00
-5.0000000000000000e+00 5.0000000000000000e+00
ITEM: ATOMS id type x y z quatw quati quatj quatk shapex shapey shapez
4 0 0 0 -1.06074 0.923785 0 0 0.382911 0.5 0.5 1
2 0 0 0 -0.0600017 0.923785 0.382911 0 0 0.5 1 0.5
1 1 0 0 0.940002 1 0 0 0 0.5 0.5 1
3 1 0 0 1.94074 0.923785 0 0.382911 0 1 0.5 0.5
ITEM: TIMESTEP
45
ITEM: NUMBER OF ATOMS
4
ITEM: BOX BOUNDS pp pp pp
-2.0000000000000000e+00 2.0000000000000000e+00
-2.0000000000000000e+00 2.0000000000000000e+00
-5.0000000000000000e+00 5.0000000000000000e+00
ITEM: ATOMS id type x y z quatw quati quatj quatk shapex shapey shapez
4 0 0 0 -1.05078 0.923785 0 0 0.382911 0.5 0.5 1
2 0 0 0 -0.0500019 0.923785 0.382911 0 0 0.5 1 0.5
1 1 0 0 0.950002 1 0 0 0 0.5 0.5 1
3 1 0 0 1.95078 0.923785 0 0.382911 0 1 0.5 0.5
ITEM: TIMESTEP
46
ITEM: NUMBER OF ATOMS
4
ITEM: BOX BOUNDS pp pp pp
-2.0000000000000000e+00 2.0000000000000000e+00
-2.0000000000000000e+00 2.0000000000000000e+00
-5.0000000000000000e+00 5.0000000000000000e+00
ITEM: ATOMS id type x y z quatw quati quatj quatk shapex shapey shapez
4 0 0 0 -1.04081 0.923785 0 0 0.382911 0.5 0.5 1
2 0 0 0 -0.0400021 0.923785 0.382911 0 0 0.5 1 0.5
1 1 0 0 0.960002 1 0 0 0 0.5 0.5 1
3 1 0 0 1.96081 0.923785 0 0.382911 0 1 0.5 0.5
ITEM: TIMESTEP
47
ITEM: NUMBER OF ATOMS
4
ITEM: BOX BOUNDS pp pp pp
-2.0000000000000000e+00 2.0000000000000000e+00
-2.0000000000000000e+00 2.0000000000000000e+00
-5.0000000000000000e+00 5.0000000000000000e+00
ITEM: ATOMS id type x y z quatw quati quatj quatk shapex shapey shapez
4 0 0 0 -1.03085 0.923785 0 0 0.382911 0.5 0.5 1
2 0 0 0 -0.0300023 0.923785 0.382911 0 0 0.5 1 0.5
1 1 0 0 0.970002 1 0 0 0 0.5 0.5 1
3 1 0 0 1.97085 0.923785 0 0.382911 0 1 0.5 0.5
ITEM: TIMESTEP
48
ITEM: NUMBER OF ATOMS
4
ITEM: BOX BOUNDS pp pp pp
-2.0000000000000000e+00 2.0000000000000000e+00
-2.0000000000000000e+00 2.0000000000000000e+00
-5.0000000000000000e+00 5.0000000000000000e+00
ITEM: ATOMS id type x y z quatw quati quatj quatk shapex shapey shapez
4 0 0 0 -1.02088 0.923785 0 0 0.382911 0.5 0.5 1
2 0 0 0 -0.0200025 0.923785 0.382911 0 0 0.5 1 0.5
1 1 0 0 0.980002 1 0 0 0 0.5 0.5 1
3 1 0 0 1.98088 0.923785 0 0.382911 0 1 0.5 0.5
ITEM: TIMESTEP
49
ITEM: NUMBER OF ATOMS
4
ITEM: BOX BOUNDS pp pp pp
-2.0000000000000000e+00 2.0000000000000000e+00
-2.0000000000000000e+00 2.0000000000000000e+00
-5.0000000000000000e+00 5.0000000000000000e+00
ITEM: ATOMS id type x y z quatw quati quatj quatk shapex shapey shapez
4 0 0 0 -1.01092 0.923785 0 0 0.382911 0.5 0.5 1
2 0 0 0 -0.0100027 0.923785 0.382911 0 0 0.5 1 0.5
1 1 0 0 0.990003 1 0 0 0 0.5 0.5 1
3 1 0 0 1.99092 0.923785 0 0.382911 0 1 0.5 0.5
ITEM: TIMESTEP
50
ITEM: NUMBER OF ATOMS
4
ITEM: BOX BOUNDS pp pp pp
-2.0000000000000000e+00 2.0000000000000000e+00
-2.0000000000000000e+00 2.0000000000000000e+00
-5.0000000000000000e+00 5.0000000000000000e+00
ITEM: ATOMS id type x y z quatw quati quatj quatk shapex shapey shapez
4 0 0 0 -1.00096 0.923785 0 0 0.382911 0.5 0.5 1
2 0 0 0 -2.89413e-06 0.923785 0.382911 0 0 0.5 1 0.5
1 1 0 0 1 1 0 0 0 0.5 0.5 1
3 1 0 0 2.00096 0.923785 0 0.382911 0 1 0.5 0.5
ITEM: TIMESTEP
51
ITEM: NUMBER OF ATOMS
4
ITEM: BOX BOUNDS pp pp pp
-2.0000000000000000e+00 2.0000000000000000e+00
-2.0000000000000000e+00 2.0000000000000000e+00
-5.0000000000000000e+00 5.0000000000000000e+00
ITEM: ATOMS id type x y z quatw quati quatj quatk shapex shapey shapez
4 0 0 0 -0.990996 0.923785 0.382911 0 0 0.5 1 0.5
1 1 0 0 1.01 1 0 0 0 0.5 0.5 1
3 1 0 0 2.011 0.923785 0 0.382911 0 1 0.5 0.5
2 1 0 0 0.00999687 0.923785 0.382911 0 0 0.5 1 0.5
ITEM: TIMESTEP
52
ITEM: NUMBER OF ATOMS
4
ITEM: BOX BOUNDS pp pp pp
-2.0000000000000000e+00 2.0000000000000000e+00
-2.0000000000000000e+00 2.0000000000000000e+00
-5.0000000000000000e+00 5.0000000000000000e+00
ITEM: ATOMS id type x y z quatw quati quatj quatk shapex shapey shapez
4 0 0 0 -0.981035 0.923785 0.382911 0 0 0.5 1 0.5
1 1 0 0 1.02 1 0 0 0 0.5 0.5 1
3 1 0 0 2.02103 0.923785 0 0.382911 0 1 0.5 0.5
2 1 0 0 0.0199966 0.923785 0.382911 0 0 0.5 1 0.5
ITEM: TIMESTEP
53
ITEM: NUMBER OF ATOMS
4
ITEM: BOX BOUNDS pp pp pp
-2.0000000000000000e+00 2.0000000000000000e+00
-2.0000000000000000e+00 2.0000000000000000e+00
-5.0000000000000000e+00 5.0000000000000000e+00
ITEM: ATOMS id type x y z quatw quati quatj quatk shapex shapey shapez
4 0 0 0 -0.971075 0.923785 0.382911 0 0 0.5 1 0.5
1 1 0 0 1.03 1 0 0 0 0.5 0.5 1
3 1 0 0 2.03107 0.923785 0 0.382911 0 1 0.5 0.5
2 1 0 0 0.0299963 0.923785 0.382911 0 0 0.5 1 0.5
ITEM: TIMESTEP
54
ITEM: NUMBER OF ATOMS
4
ITEM: BOX BOUNDS pp pp pp
-2.0000000000000000e+00 2.0000000000000000e+00
-2.0000000000000000e+00 2.0000000000000000e+00
-5.0000000000000000e+00 5.0000000000000000e+00
ITEM: ATOMS id type x y z quatw quati quatj quatk shapex shapey shapez
4 0 0 0 -0.961116 0.923785 0.382911 0 0 0.5 1 0.5
1 1 0 0 1.04 1 0 0 0 0.5 0.5 1
3 1 0 0 2.04112 0.923785 0 0.382911 0 1 0.5 0.5
2 1 0 0 0.0399961 0.923785 0.382911 0 0 0.5 1 0.5
ITEM: TIMESTEP
55
ITEM: NUMBER OF ATOMS
4
ITEM: BOX BOUNDS pp pp pp
-2.0000000000000000e+00 2.0000000000000000e+00
-2.0000000000000000e+00 2.0000000000000000e+00
-5.0000000000000000e+00 5.0000000000000000e+00
ITEM: ATOMS id type x y z quatw quati quatj quatk shapex shapey shapez
4 0 0 0 -0.951157 0.923785 0.382911 0 0 0.5 1 0.5
1 1 0 0 1.05 1 0 0 0 0.5 0.5 1
3 1 0 0 2.05116 0.923785 0 0.382911 0 1 0.5 0.5
2 1 0 0 0.0499958 0.923785 0.382911 0 0 0.5 1 0.5
ITEM: TIMESTEP
56
ITEM: NUMBER OF ATOMS
4
ITEM: BOX BOUNDS pp pp pp
-2.0000000000000000e+00 2.0000000000000000e+00
-2.0000000000000000e+00 2.0000000000000000e+00
-5.0000000000000000e+00 5.0000000000000000e+00
ITEM: ATOMS id type x y z quatw quati quatj quatk shapex shapey shapez
4 0 0 0 -0.9412 0.923785 0.382911 0 0 0.5 1 0.5
1 1 0 0 1.06 1 0 0 0 0.5 0.5 1
3 1 0 0 2.0612 0.923785 0 0.382911 0 1 0.5 0.5
2 1 0 0 0.0599955 0.923785 0.382911 0 0 0.5 1 0.5
ITEM: TIMESTEP
57
ITEM: NUMBER OF ATOMS
4
ITEM: BOX BOUNDS pp pp pp
-2.0000000000000000e+00 2.0000000000000000e+00
-2.0000000000000000e+00 2.0000000000000000e+00
-5.0000000000000000e+00 5.0000000000000000e+00
ITEM: ATOMS id type x y z quatw quati quatj quatk shapex shapey shapez
4 0 0 0 -0.931243 0.923785 0.382911 0 0 0.5 1 0.5
1 1 0 0 1.07 1 0 0 0 0.5 0.5 1
3 1 0 0 2.07124 0.923785 0 0.382911 0 1 0.5 0.5
2 1 0 0 0.0699951 0.923785 0.382911 0 0 0.5 1 0.5
ITEM: TIMESTEP
58
ITEM: NUMBER OF ATOMS
4
ITEM: BOX BOUNDS pp pp pp
-2.0000000000000000e+00 2.0000000000000000e+00
-2.0000000000000000e+00 2.0000000000000000e+00
-5.0000000000000000e+00 5.0000000000000000e+00
ITEM: ATOMS id type x y z quatw quati quatj quatk shapex shapey shapez
4 0 0 0 -0.921287 0.923785 0.382911 0 0 0.5 1 0.5
1 1 0 0 1.08001 1 0 0 0 0.5 0.5 1
3 1 0 0 2.08129 0.923785 0 0.382911 0 1 0.5 0.5
2 1 0 0 0.0799948 0.923785 0.382911 0 0 0.5 1 0.5
ITEM: TIMESTEP
59
ITEM: NUMBER OF ATOMS
4
ITEM: BOX BOUNDS pp pp pp
-2.0000000000000000e+00 2.0000000000000000e+00
-2.0000000000000000e+00 2.0000000000000000e+00
-5.0000000000000000e+00 5.0000000000000000e+00
ITEM: ATOMS id type x y z quatw quati quatj quatk shapex shapey shapez
4 0 0 0 -0.911331 0.923785 0.382911 0 0 0.5 1 0.5
1 1 0 0 1.09001 1 0 0 0 0.5 0.5 1
3 1 0 0 2.09133 0.923785 0 0.382911 0 1 0.5 0.5
2 1 0 0 0.0899944 0.923785 0.382911 0 0 0.5 1 0.5
ITEM: TIMESTEP
60
ITEM: NUMBER OF ATOMS
4
ITEM: BOX BOUNDS pp pp pp
-2.0000000000000000e+00 2.0000000000000000e+00
-2.0000000000000000e+00 2.0000000000000000e+00
-5.0000000000000000e+00 5.0000000000000000e+00
ITEM: ATOMS id type x y z quatw quati quatj quatk shapex shapey shapez
4 0 0 0 -0.901376 0.923785 0.382911 0 0 0.5 1 0.5
1 1 0 0 1.10001 1 0 0 0 0.5 0.5 1
3 1 0 0 2.10138 0.923785 0 0.382911 0 1 0.5 0.5
2 1 0 0 0.099994 0.923785 0.382911 0 0 0.5 1 0.5
ITEM: TIMESTEP
61
ITEM: NUMBER OF ATOMS
4
ITEM: BOX BOUNDS pp pp pp
-2.0000000000000000e+00 2.0000000000000000e+00
-2.0000000000000000e+00 2.0000000000000000e+00
-5.0000000000000000e+00 5.0000000000000000e+00
ITEM: ATOMS id type x y z quatw quati quatj quatk shapex shapey shapez
4 0 0 0 -0.891422 0.923785 0.382911 0 0 0.5 1 0.5
1 1 0 0 1.11001 1 0 0 0 0.5 0.5 1
3 1 0 0 2.11142 0.923785 0 0.382911 0 1 0.5 0.5
2 1 0 0 0.109994 0.923785 0.382911 0 0 0.5 1 0.5
ITEM: TIMESTEP
62
ITEM: NUMBER OF ATOMS
4
ITEM: BOX BOUNDS pp pp pp
-2.0000000000000000e+00 2.0000000000000000e+00
-2.0000000000000000e+00 2.0000000000000000e+00
-5.0000000000000000e+00 5.0000000000000000e+00
ITEM: ATOMS id type x y z quatw quati quatj quatk shapex shapey shapez
4 0 0 0 -0.881469 0.923785 0.382911 0 0 0.5 1 0.5
1 1 0 0 1.12001 1 0 0 0 0.5 0.5 1
3 1 0 0 2.12147 0.923785 0 0.382911 0 1 0.5 0.5
2 1 0 0 0.119993 0.923785 0.382911 0 0 0.5 1 0.5
ITEM: TIMESTEP
63
ITEM: NUMBER OF ATOMS
4
ITEM: BOX BOUNDS pp pp pp
-2.0000000000000000e+00 2.0000000000000000e+00
-2.0000000000000000e+00 2.0000000000000000e+00
-5.0000000000000000e+00 5.0000000000000000e+00
ITEM: ATOMS id type x y z quatw quati quatj quatk shapex shapey shapez
4 0 0 0 -0.871517 0.923785 0.382911 0 0 0.5 1 0.5
1 1 0 0 1.13001 1 0 0 0 0.5 0.5 1
3 1 0 0 2.13152 0.923785 0 0.382911 0 1 0.5 0.5
2 1 0 0 0.129993 0.923785 0.382911 0 0 0.5 1 0.5
ITEM: TIMESTEP
64
ITEM: NUMBER OF ATOMS
4
ITEM: BOX BOUNDS pp pp pp
-2.0000000000000000e+00 2.0000000000000000e+00
-2.0000000000000000e+00 2.0000000000000000e+00
-5.0000000000000000e+00 5.0000000000000000e+00
ITEM: ATOMS id type x y z quatw quati quatj quatk shapex shapey shapez
4 0 0 0 -0.861565 0.923785 0.382911 0 0 0.5 1 0.5
1 1 0 0 1.14001 1 0 0 0 0.5 0.5 1
3 1 0 0 2.14157 0.923785 0 0.382911 0 1 0.5 0.5
2 1 0 0 0.139992 0.923785 0.382911 0 0 0.5 1 0.5
ITEM: TIMESTEP
65
ITEM: NUMBER OF ATOMS
4
ITEM: BOX BOUNDS pp pp pp
-2.0000000000000000e+00 2.0000000000000000e+00
-2.0000000000000000e+00 2.0000000000000000e+00
-5.0000000000000000e+00 5.0000000000000000e+00
ITEM: ATOMS id type x y z quatw quati quatj quatk shapex shapey shapez