LAMMPS (27 Jun 2024)
KOKKOS mode with Kokkos version 4.3.1 is enabled (../kokkos.cpp:72)
package kokkos
package kokkos comm device
###
# Box and units  (use LJ units and periodic boundaries)
###

units lj

atom_style ellipsoid

boundary        p p p

neighbor 0.0 bin
neigh_modify every 1 delay 0 check yes

read_data lmp_data
Reading data file ...
  orthogonal box = (-2 -2 -5) to (2 2 5)
  1 by 1 by 2 MPI processor grid
  reading atoms ...
  4 atoms
  reading velocities ...
  4 velocities
  4 ellipsoids
  read_data CPU = 0.016 seconds
#read_data lmp_data_ordered

reset_timestep 0

######################

group all type 1
4 atoms in group all
group polymer type 1
4 atoms in group polymer

###
# Dump configs + box coords
###
compute q all property/atom quatw quati quatj quatk
compute diameter all property/atom shapex shapey shapez
dump 1 all custom 1 dump.polymer id type x y z c_q[1] c_q[2] c_q[3] c_q[4] c_diameter[1] c_diameter[2] c_diameter[3]
dump_modify 1 colname c_q[1] quatw colname c_q[2] quati colname c_q[3] quatj colname c_q[4] quatk
dump_modify 1 colname c_diameter[1] shapex colname c_diameter[2] shapey colname c_diameter[3] shapez
#dump   1   all   custom   100000   polymer.dump.*  id x y z  ix iy iz
#dump_modify   1   format line "%d %.5f %.5f %.5f %d %d %d"
#dump   id all atom 1000 dump.polymer

###################################################################
# Stiffness term
#
# E = K * (theta-thera0)**2, K>0
#
#angle_style   harmonic
#angle_coeff   1 2.0 120.0
###################################################################

###################################################################
# Pair interaction between non-bonded atoms
#
#  Lennard-Jones 12-6 potential with cutoff:
#  potential E=4epsilon[ (sigma/r)^12 - (sigma/r)^6]  for r<r_cut
#
#  1.12246152962189 = 2^(1/6) is the minimum of the potential

pair_style      lj/cut 1.12246152962189

#
#  pair_coeff for lj/cut, specify 4:
#    * atom type interacting with
#    * atom type
#    * epsilon (energy units)
#    * sigma (distance units)
#

pair_coeff      1 1 1.0 1.0

#
#  pair_modify shift yes adds a constant to the potential such
#  that E(r_cut)=0. Forces remains unchanged.
#

pair_modify     shift yes

###################################################

#comm_modify cutoff 6
#comm_style tiled
#balance 1.2 rcb

###
# Set up fixes
###

fix 1 all   nve   ###NVE ensemble

compute ekin all ke
compute epot all pe
variable ekin equal c_ekin
variable epot equal c_epot
variable etot equal c_ekin+c_epot

fix 2 all print 1 "$(step)  ekin = ${ekin} | epot = ${epot} | etot = ${etot}" screen yes

##### Sample thermodynamic info  (temperature, energy, pressure, etc.) #####
#thermo 10000
#thermo_style   custom   step  temp  epair  emol  press pxx pyy pzz  vol
############################################################################

timestep 0.001

run 10000

CITE-CITE-CITE-CITE-CITE-CITE-CITE-CITE-CITE-CITE-CITE-CITE-CITE

Your simulation uses code contributions which should be cited:

- Type Label Framework: https://doi.org/10.1021/acs.jpcb.3c08419

@Article{Gissinger24,
 author = {Jacob R. Gissinger, Ilia Nikiforov, Yaser Afshar, Brendon Waters, Moon-ki Choi, Daniel S. Karls, Alexander Stukowski, Wonpil Im, Hendrik Heinz, Axel Kohlmeyer, and Ellad B. Tadmor},
 title = {Type Label Framework for Bonded Force Fields in LAMMPS},
 journal = {J. Phys. Chem. B},
 year =    2024,
 volume =  128,
 number =  13,
 pages =   {3282–-3297}
}

CITE-CITE-CITE-CITE-CITE-CITE-CITE-CITE-CITE-CITE-CITE-CITE-CITE

Generated 0 of 0 mixed pair_coeff terms from geometric mixing rule
Neighbor list info ...
  update: every = 1 steps, delay = 0 steps, check = yes
  max neighbors/atom: 2000, page size: 100000
  master list distance cutoff = 1.1224615
  ghost atom cutoff = 1.1224615
  binsize = 0.56123076, bins = 8 8 18
  1 neighbor lists, perpetual/occasional/extra = 1 0 0
  (1) pair lj/cut/kk, perpetual
      attributes: half, newton on, kokkos_device
      pair build: half/bin/newton/kk/device
      stencil: half/bin/3d
      bin: kk/device
0  ekin = 6249.99972060395 | epot = 2.99999999997694 | etot = 6252.99972060393
Per MPI rank memory allocation (min/avg/max) = 5.174 | 5.174 | 5.174 Mbytes
   Step          Temp          E_pair         E_mol          TotEng         Press     
         0   1388.8888      0.75           0              1563.2499      26.191666    
1  ekin = 6249.99973903581 | epot = 2.99998156804336 | etot = 6252.99972060386
2  ekin = 6249.99979433034 | epot = 2.99992627331841 | etot = 6252.99972060366
3  ekin = 6249.99988648429 | epot = 2.99983411902938 | etot = 6252.99972060332
4  ekin = 6250.0000154923 | epot = 2.99970511055439 | etot = 6252.99972060285
5  ekin = 6250.00018134682 | epot = 2.99953925542155 | etot = 6252.99972060225
6  ekin = 6250.0003840382 | epot = 2.99933656330759 | etot = 6252.99972060151
7  ekin = 6250.0006235546 | epot = 2.99909704603627 | etot = 6252.99972060063
8  ekin = 6250.00089988205 | epot = 2.99882071757627 | etot = 6252.99972059963
9  ekin = 6250.00121300445 | epot = 2.99850759403879 | etot = 6252.99972059849
10  ekin = 6250.00156290354 | epot = 2.99815769367483 | etot = 6252.99972059721
11  ekin = 6250.00194955893 | epot = 2.99777103687193 | etot = 6252.9997205958
12  ekin = 6250.00237294811 | epot = 2.99734764615077 | etot = 6252.99972059426
13  ekin = 6250.00283304643 | epot = 2.99688754616122 | etot = 6252.99972059259
14  ekin = 6250.00332982711 | epot = 2.99639076367811 | etot = 6252.99972059079
15  ekin = 6250.00386326125 | epot = 2.99585732759667 | etot = 6252.99972058885
16  ekin = 6250.00443331785 | epot = 2.99528726892744 | etot = 6252.99972058678
17  ekin = 6250.00503996379 | epot = 2.99468062079108 | etot = 6252.99972058458
18  ekin = 6250.00568316383 | epot = 2.99403741841256 | etot = 6252.99972058224
19  ekin = 6250.00636288067 | epot = 2.99335769911521 | etot = 6252.99972057978
20  ekin = 6250.00707907488 | epot = 2.99264150231422 | etot = 6252.99972057719
21  ekin = 6250.00783170496 | epot = 2.99188886950999 | etot = 6252.99972057447
22  ekin = 6250.00862072733 | epot = 2.99109984428094 | etot = 6252.99972057162
23  ekin = 6250.00944609636 | epot = 2.99027447227608 | etot = 6252.99972056863
24  ekin = 6250.01030776432 | epot = 2.98941280120722 | etot = 6252.99972056553
25  ekin = 6250.01120568145 | epot = 2.98851488084079 | etot = 6252.99972056229
26  ekin = 6250.01213979594 | epot = 2.98758076298939 | etot = 6252.99972055893
27  ekin = 6250.01311005393 | epot = 2.98661050150296 | etot = 6252.99972055544
28  ekin = 6250.01411639956 | epot = 2.98560415225954 | etot = 6252.99972055182
29  ekin = 6250.01515877492 | epot = 2.98456177315589 | etot = 6252.99972054808
30  ekin = 6250.01623712012 | epot = 2.98348342409756 | etot = 6252.99972054421
31  ekin = 6250.01735137324 | epot = 2.98236916698879 | etot = 6252.99972054023
32  ekin = 6250.01850147039 | epot = 2.98121906572199 | etot = 6252.99972053611
33  ekin = 6250.01968734571 | epot = 2.98003318616697 | etot = 6252.99972053188
34  ekin = 6250.02090893136 | epot = 2.97881159615978 | etot = 6252.99972052752
35  ekin = 6250.02216615755 | epot = 2.9775543654913 | etot = 6252.99972052304
36  ekin = 6250.02345895255 | epot = 2.9762615658955 | etot = 6252.99972051844
37  ekin = 6250.02478724269 | epot = 2.97493327103733 | etot = 6252.99972051373
38  ekin = 6250.02615095239 | epot = 2.97356955650044 | etot = 6252.99972050889
39  ekin = 6250.02755000416 | epot = 2.97217049977444 | etot = 6252.99972050394
40  ekin = 6250.02898431862 | epot = 2.97073618024195 | etot = 6252.99972049887
41  ekin = 6250.03045381451 | epot = 2.96926667916542 | etot = 6252.99972049368
42  ekin = 6250.0319584087 | epot = 2.96776207967352 | etot = 6252.99972048838
43  ekin = 6250.03349801621 | epot = 2.96622246674731 | etot = 6252.99972048296
44  ekin = 6250.03507255023 | epot = 2.96464792720619 | etot = 6252.99972047743
45  ekin = 6250.0366819221 | epot = 2.96303854969344 | etot = 6252.99972047179
46  ekin = 6250.03832604138 | epot = 2.96139442466165 | etot = 6252.99972046604
47  ekin = 6250.04000481582 | epot = 2.95971564435772 | etot = 6252.99972046017
48  ekin = 6250.04171815139 | epot = 2.95800230280774 | etot = 6252.9997204542
49  ekin = 6250.04346595232 | epot = 2.95625449580146 | etot = 6252.99972044812
50  ekin = 6250.04524812106 | epot = 2.95447232087669 | etot = 6252.99972044193
51  ekin = 6250.04706455833 | epot = 2.95265587730326 | etot = 6252.99972043564
52  ekin = 6250.04891516317 | epot = 2.95080526606688 | etot = 6252.99972042924
53  ekin = 6250.05079983288 | epot = 2.94892058985268 | etot = 6252.99972042273
54  ekin = 6250.0527184631 | epot = 2.94700195302855 | etot = 6252.99972041613
55  ekin = 6250.05467094779 | epot = 2.94504946162821 | etot = 6252.99972040942
56  ekin = 6250.05665717927 | epot = 2.94306322333413 | etot = 6252.99972040261
57  ekin = 6250.05867704824 | epot = 2.94104334746014 | etot = 6252.9997203957
58  ekin = 6250.06073044376 | epot = 2.93898994493389 | etot = 6252.99972038869
59  ekin = 6250.06281725331 | epot = 2.93690312827904 | etot = 6252.99972038158
60  ekin = 6250.06493736279 | epot = 2.93478301159733 | etot = 6252.99972037438
61  ekin = 6250.06709065654 | epot = 2.93262971055034 | etot = 6252.99972036709
62  ekin = 6250.06927701736 | epot = 2.93044334234117 | etot = 6252.9997203597
63  ekin = 6250.07149632652 | epot = 2.92822402569584 | etot = 6252.99972035221
64  ekin = 6250.07374846379 | epot = 2.92597188084452 | etot = 6252.99972034464
65  ekin = 6250.07603330747 | epot = 2.92368702950266 | etot = 6252.99972033697
66  ekin = 6250.07835073437 | epot = 2.92136959485183 | etot = 6252.99972032922
67  ekin = 6250.08070061986 | epot = 2.91901970152047 | etot = 6252.99972032138
68  ekin = 6250.08308283789 | epot = 2.91663747556443 | etot = 6252.99972031345
69  ekin = 6250.08549726099 | epot = 2.91422304444746 | etot = 6252.99972030544
70  ekin = 6250.08794376032 | epot = 2.91177653702131 | etot = 6252.99972029734
71  ekin = 6250.09042220566 | epot = 2.909298083506 | etot = 6252.99972028916
72  ekin = 6250.09293246543 | epot = 2.90678781546967 | etot = 6252.9997202809
73  ekin = 6250.09547440675 | epot = 2.90424586580849 | etot = 6252.99972027256
74  ekin = 6250.09804789542 | epot = 2.90167236872628 | etot = 6252.99972026415
75  ekin = 6250.10065279594 | epot = 2.89906745971417 | etot = 6252.99972025565
76  ekin = 6250.10328897155 | epot = 2.89643127553003 | etot = 6252.99972024708
77  ekin = 6250.10595628425 | epot = 2.89376395417774 | etot = 6252.99972023843
78  ekin = 6250.10865459482 | epot = 2.89106563488654 | etot = 6252.99972022971
79  ekin = 6250.11138376283 | epot = 2.88833645809015 | etot = 6252.99972022092
80  ekin = 6250.11414364665 | epot = 2.88557656540568 | etot = 6252.99972021206
81  ekin = 6250.11693410351 | epot = 2.88278609961277 | etot = 6252.99972020313
82  ekin = 6250.1197549895 | epot = 2.87996520463229 | etot = 6252.99972019413
83  ekin = 6250.12260615956 | epot = 2.87711402550525 | etot = 6252.99972018506
84  ekin = 6250.12548746756 | epot = 2.8742327083714 | etot = 6252.99972017593
85  ekin = 6250.12839876629 | epot = 2.87132140044795 | etot = 6252.99972016674
86  ekin = 6250.13133990747 | epot = 2.86838025000817 | etot = 6252.99972015748
87  ekin = 6250.1343107418 | epot = 2.86540940635979 | etot = 6252.99972014816
88  ekin = 6250.13731111896 | epot = 2.86240901982362 | etot = 6252.99972013878
89  ekin = 6250.14034088764 | epot = 2.85937924171188 | etot = 6252.99972012935
90  ekin = 6250.14339989555 | epot = 2.85632022430664 | etot = 6252.99972011986
91  ekin = 6250.14648798947 | epot = 2.85323212083814 | etot = 6252.99972011031
92  ekin = 6250.14960501524 | epot = 2.85011508546313 | etot = 6252.99972010071
93  ekin = 6250.15275081781 | epot = 2.84696927324318 | etot = 6252.99972009105
94  ekin = 6250.15592524123 | epot = 2.84379484012295 | etot = 6252.99972008135
95  ekin = 6250.15912812869 | epot = 2.84059194290846 | etot = 6252.99972007159
96  ekin = 6250.16235932254 | epot = 2.83736073924535 | etot = 6252.99972006179
97  ekin = 6250.16561866434 | epot = 2.83410138759718 | etot = 6252.99972005194
98  ekin = 6250.16890599482 | epot = 2.83081404722366 | etot = 6252.99972004204
99  ekin = 6250.17222115395 | epot = 2.82749887815892 | etot = 6252.9997200321
100  ekin = 6250.17556398093 | epot = 2.82415604118986 | etot = 6252.99972002212
101  ekin = 6250.17893431426 | epot = 2.82078569783441 | etot = 6252.9997200121
102  ekin = 6250.18233199171 | epot = 2.81738801031984 | etot = 6252.99972000203
103  ekin = 6250.18575685037 | epot = 2.81396314156123 | etot = 6252.99971999193
104  ekin = 6250.18920872665 | epot = 2.81051125513977 | etot = 6252.99971998179
105  ekin = 6250.19268745633 | epot = 2.80703251528127 | etot = 6252.99971997162
106  ekin = 6250.19619287457 | epot = 2.80352708683462 | etot = 6252.99971996141
107  ekin = 6250.19972481591 | epot = 2.79999513525032 | etot = 6252.99971995116
108  ekin = 6250.20328311433 | epot = 2.79643682655915 | etot = 6252.99971994089
109  ekin = 6250.20686760323 | epot = 2.79285232735073 | etot = 6252.99971993058
110  ekin = 6250.2104781155 | epot = 2.78924180475231 | etot = 6252.99971992025
111  ekin = 6250.21411448348 | epot = 2.78560542640756 | etot = 6252.99971990989
112  ekin = 6250.21777653904 | epot = 2.78194336045541 | etot = 6252.9997198995
113  ekin = 6250.22146411358 | epot = 2.77825577550905 | etot = 6252.99971988909
114  ekin = 6250.22517703801 | epot = 2.7745428406349 | etot = 6252.99971987865
115  ekin = 6250.22891514286 | epot = 2.77080472533181 | etot = 6252.99971986819
116  ekin = 6250.2326782582 | epot = 2.76704159951028 | etot = 6252.99971985771
117  ekin = 6250.23646621374 | epot = 2.76325363347167 | etot = 6252.99971984721
118  ekin = 6250.24027883881 | epot = 2.75944099788774 | etot = 6252.99971983669
119  ekin = 6250.24411596238 | epot = 2.75560386378018 | etot = 6252.99971982616
120  ekin = 6250.24797741311 | epot = 2.75174240250016 | etot = 6252.99971981561
121  ekin = 6250.25186301933 | epot = 2.74785678570818 | etot = 6252.99971980504
122  ekin = 6250.25577260911 | epot = 2.74394718535392 | etot = 6252.99971979446
123  ekin = 6250.25970601022 | epot = 2.74001377365621 | etot = 6252.99971978388
124  ekin = 6250.26366305019 | epot = 2.73605672308324 | etot = 6252.99971977327
125  ekin = 6250.26764355633 | epot = 2.73207620633275 | etot = 6252.99971976266
126  ekin = 6250.27164735573 | epot = 2.72807239631249 | etot = 6252.99971975205
127  ekin = 6250.2756742753 | epot = 2.72404546612072 | etot = 6252.99971974142
128  ekin = 6250.27972414176 | epot = 2.71999558902693 | etot = 6252.99971973079
129  ekin = 6250.2837967817 | epot = 2.71592293845265 | etot = 6252.99971972016
130  ekin = 6250.28789202157 | epot = 2.71182768795248 | etot = 6252.99971970952
131  ekin = 6250.29200968768 | epot = 2.70771001119516 | etot = 6252.99971969888
132  ekin = 6250.29614960629 | epot = 2.70357008194497 | etot = 6252.99971968824
133  ekin = 6250.30031160355 | epot = 2.69940807404309 | etot = 6252.9997196776
134  ekin = 6250.30449550557 | epot = 2.69522416138933 | etot = 6252.99971966696
135  ekin = 6250.3087011384 | epot = 2.69101851792384 | etot = 6252.99971965632
136  ekin = 6250.31292832808 | epot = 2.68679131760916 | etot = 6252.99971964569
137  ekin = 6250.31717690065 | epot = 2.68254273441229 | etot = 6252.99971963506
138  ekin = 6250.32144668215 | epot = 2.67827294228708 | etot = 6252.99971962444
139  ekin = 6250.32573749867 | epot = 2.67398211515667 | etot = 6252.99971961382
140  ekin = 6250.33004917632 | epot = 2.66967042689627 | etot = 6252.99971960322
141  ekin = 6250.3343815413 | epot = 2.66533805131592 | etot = 6252.99971959262
142  ekin = 6250.33873441989 | epot = 2.66098516214366 | etot = 6252.99971958203
143  ekin = 6250.34310763845 | epot = 2.65661193300873 | etot = 6252.99971957146
144  ekin = 6250.34750102347 | epot = 2.65221853742504 | etot = 6252.99971956089
145  ekin = 6250.35191440157 | epot = 2.64780514877482 | etot = 6252.99971955034
146  ekin = 6250.35634759952 | epot = 2.64337194029246 | etot = 6252.99971953981
147  ekin = 6250.36080044424 | epot = 2.63891908504858 | etot = 6252.99971952929
148  ekin = 6250.36527276285 | epot = 2.63444675593425 | etot = 6252.99971951878
149  ekin = 6250.36976438265 | epot = 2.6299551256455 | etot = 6252.9997195083
150  ekin = 6250.37427513116 | epot = 2.62544436666795 | etot = 6252.99971949783
151  ekin = 6250.37987423244 | epot = 3.43677302198014 | etot = 6253.81664725442
152  ekin = 6250.38659611139 | epot = 3.43005110070733 | etot = 6253.8166472121
153  ekin = 6250.39338086756 | epot = 3.42326630176949 | etot = 6253.81664716933
154  ekin = 6250.40022780883 | epot = 3.41641931730053 | etot = 6253.81664712613
155  ekin = 6250.40713623583 | epot = 3.40951084668387 | etot = 6253.81664708251
156  ekin = 6250.41410544214 | epot = 3.40254159633619 | etot = 6253.81664703848
157  ekin = 6250.42113471457 | epot = 3.3955122794896 | etot = 6253.81664699406
158  ekin = 6250.42822333329 | epot = 3.3884236159728 | etot = 6253.81664694926
159  ekin = 6250.43537057211 | epot = 3.38127633199095 | etot = 6253.8166469041
160  ekin = 6250.44257569869 | epot = 3.37407115990439 | etot = 6253.81664685859
161  ekin = 6250.44983797474 | epot = 3.36680883800662 | etot = 6253.81664681275
162  ekin = 6250.45715665628 | epot = 3.35949011030127 | etot = 6253.81664676659
163  ekin = 1.27876500947242e+47 | epot = 4.65278552609934e+24 | etot = 1.27876500947242e+47
164  ekin = 4727.03941653218 | epot = 4.65278552609934e+24 | etot = 4.65278552609934e+24
165  ekin = 4727.04181029371 | epot = 4.65278552609934e+24 | etot = 4.65278552609934e+24
166  ekin = 4727.04423032446 | epot = 4.65278552609934e+24 | etot = 4.65278552609934e+24
167  ekin = 4727.04667653105 | epot = 4.65278552609934e+24 | etot = 4.65278552609934e+24
168  ekin = 4727.04914881906 | epot = 4.65278552609934e+24 | etot = 4.65278552609934e+24
169  ekin = 4727.05164709291 | epot = 4.65278552609934e+24 | etot = 4.65278552609934e+24
170  ekin = 4727.05417125596 | epot = 4.65278552609934e+24 | etot = 4.65278552609934e+24
171  ekin = 4727.05672121046 | epot = 4.65278552609934e+24 | etot = 4.65278552609934e+24
172  ekin = 4727.05929685755 | epot = 4.65278552609934e+24 | etot = 4.65278552609934e+24
173  ekin = 4727.06189809729 | epot = 4.65278552609934e+24 | etot = 4.65278552609934e+24
174  ekin = 4727.06452482866 | epot = 4.65278552609934e+24 | etot = 4.65278552609934e+24
175  ekin = 4727.06717694952 | epot = 4.65278552609934e+24 | etot = 4.65278552609934e+24
176  ekin = 4727.06985435666 | epot = 4.65278552609934e+24 | etot = 4.65278552609934e+24
177  ekin = 4727.07255694579 | epot = 4.65278552609934e+24 | etot = 4.65278552609934e+24
178  ekin = 4727.07528461153 | epot = 4.65278552609934e+24 | etot = 4.65278552609934e+24
179  ekin = 4727.07803724741 | epot = 4.65278552609934e+24 | etot = 4.65278552609934e+24
180  ekin = 4727.0808147459 | epot = 4.65278552609934e+24 | etot = 4.65278552609934e+24
181  ekin = 4727.0836169984 | epot = 4.65278552609934e+24 | etot = 4.65278552609934e+24
182  ekin = 4727.0864438952 | epot = 4.65278552609934e+24 | etot = 4.65278552609934e+24
183  ekin = 4727.08929532557 | epot = 4.65278552609934e+24 | etot = 4.65278552609934e+24
184  ekin = 4727.09217117769 | epot = 4.65278552609934e+24 | etot = 4.65278552609934e+24
185  ekin = 4727.09507133867 | epot = 4.65278552609934e+24 | etot = 4.65278552609934e+24
186  ekin = 4727.09799569458 | epot = 4.65278552609934e+24 | etot = 4.65278552609934e+24
187  ekin = 4727.10094413043 | epot = 4.65278552609934e+24 | etot = 4.65278552609934e+24
188  ekin = 4727.10391653018 | epot = 4.65278552609934e+24 | etot = 4.65278552609934e+24
189  ekin = 4727.10691277674 | epot = 4.65278552609934e+24 | etot = 4.65278552609934e+24
190  ekin = 4727.10993275196 | epot = 4.65278552609934e+24 | etot = 4.65278552609934e+24
191  ekin = 4727.1129763367 | epot = 4.65278552609934e+24 | etot = 4.65278552609934e+24
192  ekin = 4727.11604341073 | epot = 4.65278552609934e+24 | etot = 4.65278552609934e+24
193  ekin = 4727.11913385282 | epot = 4.65278552609934e+24 | etot = 4.65278552609934e+24
194  ekin = 4727.12224754073 | epot = 4.65278552609934e+24 | etot = 4.65278552609934e+24
195  ekin = 4727.12538435116 | epot = 4.65278552609934e+24 | etot = 4.65278552609934e+24
196  ekin = 4727.12854415982 | epot = 4.65278552609934e+24 | etot = 4.65278552609934e+24
197  ekin = 4727.1317268414 | epot = 4.65278552609934e+24 | etot = 4.65278552609934e+24
198  ekin = 4727.1349322696 | epot = 4.65278552609934e+24 | etot = 4.65278552609934e+24
199  ekin = 4727.1381603171 | epot = 4.65278552609934e+24 | etot = 4.65278552609934e+24
200  ekin = 4727.1414108556 | epot = 4.65278552609934e+24 | etot = 4.65278552609934e+24
201  ekin = 4727.14468375581 | epot = 4.65278552609934e+24 | etot = 4.65278552609934e+24
202  ekin = 4727.14797888746 | epot = 4.65278552609934e+24 | etot = 4.65278552609934e+24
203  ekin = 4727.15129611928 | epot = 4.65278552609934e+24 | etot = 4.65278552609934e+24
204  ekin = 4727.15463531905 | epot = 4.65278552609934e+24 | etot = 4.65278552609934e+24
205  ekin = 4727.1579963536 | epot = 4.65278552609934e+24 | etot = 4.65278552609934e+24
206  ekin = 4727.16137908877 | epot = 4.65278552609934e+24 | etot = 4.65278552609934e+24
207  ekin = 4727.16478338946 | epot = 4.65278552609934e+24 | etot = 4.65278552609934e+24
208  ekin = 4727.16820911964 | epot = 4.65278552609934e+24 | etot = 4.65278552609934e+24
209  ekin = 4727.17165614232 | epot = 4.65278552609934e+24 | etot = 4.65278552609934e+24
210  ekin = 4727.1751243196 | epot = 4.65278552609934e+24 | etot = 4.65278552609934e+24
211  ekin = 4727.17861351264 | epot = 4.65278552609934e+24 | etot = 4.65278552609934e+24
212  ekin = 4727.18212358169 | epot = 4.65278552609934e+24 | etot = 4.65278552609934e+24
213  ekin = 4727.18565438609 | epot = 4.65278552609934e+24 | etot = 4.65278552609934e+24
214  ekin = 4727.18920578428 | epot = 4.65278552609934e+24 | etot = 4.65278552609934e+24
215  ekin = 4727.1927776338 | epot = 4.65278552609934e+24 | etot = 4.65278552609934e+24
216  ekin = 4727.19636979132 | epot = 4.65278552609934e+24 | etot = 4.65278552609934e+24
217  ekin = 4727.19998211262 | epot = 4.65278552609934e+24 | etot = 4.65278552609934e+24
218  ekin = 4727.20361445261 | epot = 4.65278552609934e+24 | etot = 4.65278552609934e+24
219  ekin = 4727.20726666534 | epot = 4.65278552609934e+24 | etot = 4.65278552609934e+24
220  ekin = 4727.21093860401 | epot = 4.65278552609934e+24 | etot = 4.65278552609934e+24
221  ekin = 4727.21463012097 | epot = 4.65278552609934e+24 | etot = 4.65278552609934e+24
222  ekin = 4727.21834106775 | epot = 4.65278552609934e+24 | etot = 4.65278552609934e+24
223  ekin = 4727.22207129504 | epot = 4.65278552609934e+24 | etot = 4.65278552609934e+24
224  ekin = 4727.22582065271 | epot = 4.65278552609934e+24 | etot = 4.65278552609934e+24
225  ekin = 4727.22958898984 | epot = 4.65278552609934e+24 | etot = 4.65278552609934e+24
226  ekin = 4727.23337615469 | epot = 4.65278552609934e+24 | etot = 4.65278552609934e+24
227  ekin = 4727.23718199474 | epot = 4.65278552609934e+24 | etot = 4.65278552609934e+24
228  ekin = 4727.24100635669 | epot = 4.65278552609934e+24 | etot = 4.65278552609934e+24
229  ekin = 4727.24484908647 | epot = 4.65278552609934e+24 | etot = 4.65278552609934e+24
230  ekin = 4727.24871002926 | epot = 4.65278552609934e+24 | etot = 4.65278552609934e+24
231  ekin = 4727.25258902947 | epot = 4.65278552609934e+24 | etot = 4.65278552609934e+24
232  ekin = 4727.25648593078 | epot = 4.65278552609934e+24 | etot = 4.65278552609934e+24
233  ekin = 4727.26040057615 | epot = 4.65278552609934e+24 | etot = 4.65278552609934e+24
234  ekin = 4727.26433280781 | epot = 4.65278552609934e+24 | etot = 4.65278552609934e+24
235  ekin = 4727.26828246727 | epot = 4.65278552609934e+24 | etot = 4.65278552609934e+24
236  ekin = 4727.27224939538 | epot = 1.54133330024849 | etot = 4728.81358269563
237  ekin = 4727.27623343226 | epot = 1.537349253717 | etot = 4728.81358268597
238  ekin = 4727.28023441737 | epot = 1.53334825891056 | etot = 4728.81358267628
239  ekin = 4727.28425218952 | epot = 1.52933047703273 | etot = 4728.81358266655
240  ekin = 4727.28828658685 | epot = 1.52529606994108 | etot = 4728.81358265679
241  ekin = 4727.29233744685 | epot = 1.52124520013587 | etot = 4728.81358264699
242  ekin = 4727.29640460641 | epot = 1.51717803074865 | etot = 4728.81358263715
243  ekin = 4727.30048790175 | epot = 1.51309472553078 | etot = 4728.81358262729
244  ekin = 4727.30458716854 | epot = 1.50899544884181 | etot = 4728.81358261738
245  ekin = 4727.30870224181 | epot = 1.50488036563773 | etot = 4728.81358260744
246  ekin = 4727.31283295602 | epot = 1.50074964145913 | etot = 4728.81358259748
247  ekin = 4727.31697914506 | epot = 1.49660344241931 | etot = 4728.81358258748
248  ekin = 4727.32114064226 | epot = 1.49244193519215 | etot = 4728.81358257745
249  ekin = 4727.32531728039 | epot = 1.48826528700001 | etot = 4728.81358256739
250  ekin = 4727.32950889171 | epot = 1.4840736656015 | etot = 4728.81358255731
251  ekin = 4727.33371530791 | epot = 1.4798672392791 | etot = 4728.81358254719
252  ekin = 4727.33793636022 | epot = 1.47564617682671 | etot = 4728.81358253705
253  ekin = 4727.34217187935 | epot = 1.47141064753722 | etot = 4728.81358252688
254  ekin = 4727.3464216955 | epot = 1.46716082118976 | etot = 4728.81358251669
255  ekin = 4727.35068563844 | epot = 1.46289686803705 | etot = 4728.81358250647
256  ekin = 4727.35496353744 | epot = 1.45861895879264 | etot = 4728.81358249623
257  ekin = 4727.35925522135 | epot = 1.45432726461803 | etot = 4728.81358248597
258  ekin = 4727.36356051857 | epot = 1.45002195710964 | etot = 4728.81358247568
259  ekin = 4727.36787925709 | epot = 1.44570320828589 | etot = 4728.81358246537
260  ekin = 4727.37221126447 | epot = 1.44137119057403 | etot = 4728.81358245504
261  ekin = 4727.3765563679 | epot = 1.43702607679699 | etot = 4728.8135824447
262  ekin = 4727.38091439417 | epot = 1.43266804016011 | etot = 4728.81358243433
263  ekin = 4727.38528516971 | epot = 1.42829725423788 | etot = 4728.81358242394
264  ekin = 4727.38966852058 | epot = 1.42391389296049 | etot = 4728.81358241354
265  ekin = 4727.39406427252 | epot = 1.41951813060048 | etot = 4728.81358240313
266  ekin = 4727.39847225093 | epot = 1.41511014175921 | etot = 4728.81358239269
267  ekin = 4727.40289228089 | epot = 1.41069010135326 | etot = 4728.81358238225
268  ekin = 4727.40732418719 | epot = 1.40625818460092 | etot = 4728.81358237179
269  ekin = 4727.41176779431 | epot = 1.40181456700848 | etot = 4728.81358236131
270  ekin = 4727.41622292647 | epot = 1.39735942435655 | etot = 4728.81358235083
271  ekin = 4727.42068940765 | epot = 1.3928929326863 | etot = 4728.81358234034
272  ekin = 4727.42516706155 | epot = 1.38841526828571 | etot = 4728.81358232983
273  ekin = 4727.42965571164 | epot = 1.3839266076757 | etot = 4728.81358231932
274  ekin = 4727.4341551812 | epot = 1.37942712759632 | etot = 4728.8135823088
275  ekin = 4727.43866529328 | epot = 1.37491700499281 | etot = 4728.81358229827
276  ekin = 4727.44318587073 | epot = 1.37039641700173 | etot = 4728.81358228773
277  ekin = 4727.44771673626 | epot = 1.36586554093694 | etot = 4728.8135822772
278  ekin = 4727.45225771238 | epot = 1.36132455427571 | etot = 4728.81358226665
279  ekin = 4727.45680862146 | epot = 1.35677363464467 | etot = 4728.8135822561
280  ekin = 4727.46136928575 | epot = 1.35221295980578 | etot = 4728.81358224555
281  ekin = 4727.46593952736 | epot = 1.34764270764239 | etot = 4728.813582235
282  ekin = 4727.4705191683 | epot = 1.34306305614506 | etot = 4728.81358222445
283  ekin = 4727.4751080305 | epot = 1.33847418339764 | etot = 4728.8135822139
284  ekin = 4727.47970593578 | epot = 1.33387626756314 | etot = 4728.81358220335
285  ekin = 4727.48431270593 | epot = 1.32926948686968 | etot = 4728.8135821928
286  ekin = 4727.48892816266 | epot = 1.3246540195964 | etot = 4728.81358218225
287  ekin = 4727.49355212765 | epot = 1.32003004405948 | etot = 4728.81358217171
288  ekin = 4727.49818442257 | epot = 1.31539773859796 | etot = 4728.81358216117
289  ekin = 4727.50282486908 | epot = 1.31075728155978 | etot = 4728.81358215064
290  ekin = 4727.50747328883 | epot = 1.30610885128772 | etot = 4728.81358214012
291  ekin = 4727.51212950349 | epot = 1.30145262610536 | etot = 4728.8135821296
292  ekin = 4727.51679333479 | epot = 1.29678878430304 | etot = 4728.81358211909
293  ekin = 4727.52146460447 | epot = 1.29211750412393 | etot = 4728.81358210859
294  ekin = 4727.52614313435 | epot = 1.28743896375 | etot = 4728.8135820981
295  ekin = 4727.53082874633 | epot = 1.28275334128808 | etot = 4728.81358208762
296  ekin = 4727.5355212624 | epot = 1.27806081475599 | etot = 4728.81358207715
297  ekin = 4727.54022050463 | epot = 1.27336156206857 | etot = 4728.8135820667
298  ekin = 4727.54492629524 | epot = 1.26865576102388 | etot = 4728.81358205626
299  ekin = 4727.54963845654 | epot = 1.26394358928935 | etot = 4728.81358204583
300  ekin = 4727.55435681103 | epot = 1.25922522438801 | etot = 4728.81358203542
301  ekin = 4727.55908118134 | epot = 1.25450084368472 | etot = 4728.81358202503
302  ekin = 4727.56381139028 | epot = 1.24977062437248 | etot = 4728.81358201465
303  ekin = 4727.56854726083 | epot = 1.24503474345879 | etot = 4728.81358200429
304  ekin = 4727.5732886162 | epot = 1.24029337775201 | etot = 4728.81358199395
305  ekin = 4727.57803527978 | epot = 1.23554670384783 | etot = 4728.81358198363
306  ekin = 4727.58278707522 | epot = 1.23079489811575 | etot = 4728.81358197333
307  ekin = 4727.58754382637 | epot = 1.22603813668565 | etot = 4728.81358196306
308  ekin = 4727.59230535737 | epot = 1.22127659543435 | etot = 4728.8135819528
309  ekin = 4727.5970714926 | epot = 1.21651044997238 | etot = 4728.81358194257
310  ekin = 4727.60184205673 | epot = 1.21173987563063 | etot = 4728.81358193236
311  ekin = 4727.60661687473 | epot = 1.20696504744718 | etot = 4728.81358192218
312  ekin = 4727.61139577187 | epot = 1.2021861401542 | etot = 4728.81358191202
313  ekin = 4727.61617857372 | epot = 1.19740332816481 | etot = 4728.81358190189
314  ekin = 4727.62096510623 | epot = 1.19261678556021 | etot = 4728.81358189179
315  ekin = 4727.62575519563 | epot = 1.18782668607668 | etot = 4728.81358188171
316  ekin = 4727.63054866857 | epot = 1.18303320309279 | etot = 4728.81358187167
317  ekin = 4727.63534535203 | epot = 1.17823650961661 | etot = 4728.81358186165
318  ekin = 4727.64014507339 | epot = 1.17343677827312 | etot = 4728.81358185166
319  ekin = 4727.64494766042 | epot = 1.16863418129153 | etot = 4728.81358184171
320  ekin = 4727.64975294129 | epot = 1.16382889049283 | etot = 4728.81358183179
321  ekin = 4727.65456074462 | epot = 1.15902107727742 | etot = 4728.8135818219
322  ekin = 4727.65937089943 | epot = 1.1542109126127 | etot = 4728.81358181204
323  ekin = 4727.6641832352 | epot = 1.14939856702092 | etot = 4728.81358180222
324  ekin = 4727.66899758187 | epot = 1.14458421056699 | etot = 4728.81358179244
325  ekin = 4727.67381376984 | epot = 1.13976801284651 | etot = 4728.81358178269
326  ekin = 4727.67863163 | epot = 1.13495014297379 | etot = 4728.81358177297
327  ekin = 4727.68345099373 | epot = 1.13013076957003 | etot = 4728.8135817633
328  ekin = 4727.68827169291 | epot = 1.12531006075159 | etot = 4728.81358175366
329  ekin = 4727.69309355995 | epot = 1.12048818411834 | etot = 4728.81358174406
330  ekin = 4727.69791642776 | epot = 1.11566530674215 | etot = 4728.8135817345
331  ekin = 4727.70274012983 | epot = 1.11084159515551 | etot = 4728.81358172499
332  ekin = 4727.70756450017 | epot = 1.10601721534018 | etot = 4728.81358171551
333  ekin = 4727.71238937336 | epot = 1.101192332716 | etot = 4728.81358170607
334  ekin = 4727.71721458455 | epot = 1.09636711212985 | etot = 4728.81358169668
335  ekin = 4727.72203996949 | epot = 1.09154171784464 | etot = 4728.81358168733
336  ekin = 4727.7268653645 | epot = 1.08671631352846 | etot = 4728.81358167803
337  ekin = 4727.73169060652 | epot = 1.08189106224389 | etot = 4728.81358166877
338  ekin = 4727.73751399531 | epot = 1.47266986177015 | etot = 4729.21018385708
339  ekin = 4727.744341836 | epot = 1.46584200036375 | etot = 4729.21018383636
340  ekin = 4727.75117506943 | epot = 1.45900874630912 | etot = 4729.21018381574
341  ekin = 4727.75801334413 | epot = 1.45217045107799 | etot = 4729.21018379521
342  ekin = 4727.76485630995 | epot = 1.44532746483389 | etot = 4729.21018377478
343  ekin = 4727.77170361805 | epot = 1.43848013639948 | etot = 4729.21018375445
344  ekin = 4727.778554921 | epot = 1.43162881322425 | etot = 4729.21018373423
345  ekin = 4727.78540987275 | epot = 1.42477384135258 | etot = 4729.21018371411
346  ekin = 4727.79125607852 | epot = 1.03841980498858 | etot = 4728.82967588351
347  ekin = 4727.79608760827 | epot = 1.03358826664841 | etot = 4728.82967587492
348  ekin = 4727.80091706054 | epot = 1.02875880584279 | etot = 4728.82967586638
349  ekin = 4727.80574428308 | epot = 1.02393157481106 | etot = 4728.82967585789
350  ekin = 4727.81056912436 | epot = 1.0191067250883 | etot = 4728.82967584945
351  ekin = 4727.81539143357 | epot = 1.01428440749672 | etot = 4728.82967584106
352  ekin = 4727.82021106059 | epot = 1.00946477213702 | etot = 4728.82967583273
353  ekin = 4727.82502785606 | epot = 1.00464796837999 | etot = 4728.82967582444
354  ekin = 4727.82984167135 | epot = 0.999834144858213 | etot = 4728.82967581621
355  ekin = 4727.83465235857 | epot = 0.995023449457844 | etot = 4728.82967580803
356  ekin = 4727.83945977059 | epot = 0.990216029310579 | etot = 4728.8296757999
357  ekin = 4727.84426376104 | epot = 0.985412030785691 | etot = 4728.82967579183
358  ekin = 4727.84906418433 | epot = 0.980611599482232 | etot = 4728.82967578381
359  ekin = 4727.85386089562 | epot = 0.975814880221349 | etot = 4728.82967577584
360  ekin = 4727.8586537509 | epot = 0.971022017038702 | etot = 4728.82967576794
361  ekin = 4727.86344260691 | epot = 0.96623315317708 | etot = 4728.82967576008
362  ekin = 4727.86822732121 | epot = 0.96144843107907 | etot = 4728.82967575228
363  ekin = 4727.87300775216 | epot = 0.956667992379883 | etot = 4728.82967574455
364  ekin = 4727.87778375896 | epot = 0.951891977900333 | etot = 4728.82967573686
365  ekin = 4727.8825552016 | epot = 0.947120527639927 | etot = 4728.82967572923
366  ekin = 4727.8873219409 | epot = 0.942353780770084 | etot = 4728.82967572167
367  ekin = 4727.89208383853 | epot = 0.937591875627464 | etot = 4728.82967571416
368  ekin = 4727.896840757 | epot = 0.932834949707501 | etot = 4728.8296757067
369  ekin = 4727.90159255965 | epot = 0.92808313965797 | etot = 4728.82967569931
370  ekin = 4727.9063391107 | epot = 0.923336581272782 | etot = 4728.82967569198
371  ekin = 4727.91108027522 | epot = 0.918595409485834 | etot = 4728.8296756847
372  ekin = 4727.91581591912 | epot = 0.913859758365043 | etot = 4728.82967567749
373  ekin = 4727.92054590923 | epot = 0.909129761106495 | etot = 4728.82967567033
374  ekin = 4727.92527011321 | epot = 0.904405550028721 | etot = 4728.82967566324
375  ekin = 4727.92998839964 | epot = 0.899687256567122 | etot = 4728.82967565621
376  ekin = 4727.93470063797 | epot = 0.894975011268496 | etot = 4728.82967564924
377  ekin = 4727.93940669854 | epot = 0.890268943785769 | etot = 4728.82967564233
378  ekin = 4727.94410645261 | epot = 0.885569182872775 | etot = 4728.82967563548
379  ekin = 4727.94879977231 | epot = 0.880875856379211 | etot = 4728.82967562869
380  ekin = 4727.95348653072 | epot = 0.876189091245737 | etot = 4728.82967562197
381  ekin = 4727.95816660181 | epot = 0.871509013499192 | etot = 4728.82967561531
382  ekin = 4727.96283986046 | epot = 0.866835748247943 | etot = 4728.82967560871
383  ekin = 4727.96750618249 | epot = 0.862169419677361 | etot = 4728.82967560217
384  ekin = 4727.97216544465 | epot = 0.857510151045481 | etot = 4728.8296755957
385  ekin = 4727.97681752461 | epot = 0.85285806467871 | etot = 4728.82967558929
386  ekin = 4727.98146230098 | epot = 0.848213281967743 | etot = 4728.82967558294
387  ekin = 4727.9860996533 | epot = 0.843575923363572 | etot = 4728.82967557666
388  ekin = 4727.99072946207 | epot = 0.838946108373625 | etot = 4728.82967557045
389  ekin = 4727.99535160874 | epot = 0.834323955558082 | etot = 4728.82967556429
390  ekin = 4727.99996597568 | epot = 0.829709582526262 | etot = 4728.82967555821
391  ekin = 4728.00457244625 | epot = 0.825103105933182 | etot = 4728.82967555218
392  ekin = 4728.00917090475 | epot = 0.82050464147625 | etot = 4728.82967554622
393  ekin = 4728.01376123644 | epot = 0.81591430389204 | etot = 4728.82967554033
394  ekin = 4728.01834332755 | epot = 0.811332206953258 | etot = 4728.8296755345
395  ekin = 4728.02291706527 | epot = 0.806758463465805 | etot = 4728.82967552874
396  ekin = 4728.02748233778 | epot = 0.802193185265981 | etot = 4728.82967552304
397  ekin = 4728.03203903419 | epot = 0.797636483217793 | etot = 4728.82967551741
398  ekin = 4728.03658704463 | epot = 0.793088467210436 | etot = 4728.82967551184
399  ekin = 4728.04112626019 | epot = 0.788549246155852 | etot = 4728.82967550634
400  ekin = 4728.04565657292 | epot = 0.784018927986471 | etot = 4728.82967550091
401  ekin = 4728.05017787589 | epot = 0.779497619653007 | etot = 4728.82967549554
402  ekin = 4728.05469006311 | epot = 0.774985427122455 | etot = 4728.82967549024
403  ekin = 4728.05919302962 | epot = 0.770482455376146 | etot = 4728.829675485
404  ekin = 4728.06368667142 | epot = 0.765988808408011 | etot = 4728.82967547983
405  ekin = 4728.0681708855 | epot = 0.761504589222849 | etot = 4728.82967547473
406  ekin = 4728.07264556985 | epot = 0.757029899834834 | etot = 4728.82967546969
407  ekin = 4728.07711062345 | epot = 0.752564841266086 | etot = 4728.82967546472
408  ekin = 4728.08156594627 | epot = 0.748109513545343 | etot = 4728.82967545981
409  ekin = 4728.08601143927 | epot = 0.743664015706836 | etot = 4728.82967545498
410  ekin = 4728.09044700441 | epot = 0.739228445789182 | etot = 4728.8296754502
411  ekin = 4728.09487254466 | epot = 0.734802900834478 | etot = 4728.8296754455
412  ekin = 4728.09928796397 | epot = 0.730387476887458 | etot = 4728.82967544086
413  ekin = 4728.10369316729 | epot = 0.7259822689948 | etot = 4728.82967543629
414  ekin = 4728.10808806058 | epot = 0.721587371204532 | etot = 4728.82967543178
415  ekin = 4728.11247255078 | epot = 0.717202876565581 | etot = 4728.82967542734
416  ekin = 4728.11684654584 | epot = 0.712828877127372 | etot = 4728.82967542297
417  ekin = 4728.12120995472 | epot = 0.708465463939628 | etot = 4728.82967541866
418  ekin = 4728.12556268737 | epot = 0.704112727052222 | etot = 4728.82967541442
419  ekin = 4728.12990465473 | epot = 0.699770755515149 | etot = 4728.82967541025
420  ekin = 4728.13423576876 | epot = 0.695439637378623 | etot = 4728.82967540614
421  ekin = 4728.13855594241 | epot = 0.691119459693286 | etot = 4728.8296754021
422  ekin = 4728.14286508961 | epot = 0.686810308510495 | etot = 4728.82967539812
423  ekin = 4728.14716312533 | epot = 0.682512268882749 | etot = 4728.82967539421
424  ekin = 4728.15144996551 | epot = 0.678225424864233 | etot = 4728.82967539037
425  ekin = 4728.15572552708 | epot = 0.673949859511409 | etot = 4728.8296753866
426  ekin = 4728.159989728 | epot = 0.669685654883775 | etot = 4728.82967538288
427  ekin = 4728.16424248719 | epot = 0.665432892044691 | etot = 4728.82967537924
428  ekin = 4728.16848372459 | epot = 0.661191651062317 | etot = 4728.82967537566
429  ekin = 4728.17271336113 | epot = 0.656962011010645 | etot = 4728.82967537214
430  ekin = 4728.17693131872 | epot = 0.652744049970655 | etot = 4728.82967536869
431  ekin = 4728.18113752028 | epot = 0.648537845031544 | etot = 4728.82967536531
432  ekin = 4728.1853318897 | epot = 0.644343472292054 | etot = 4728.82967536199
433  ekin = 4728.18951435187 | epot = 0.640161006861927 | etot = 4728.82967535873
434  ekin = 4728.19368483268 | epot = 0.635990522863406 | etot = 4728.82967535555
435  ekin = 4728.19784325899 | epot = 0.63183209343286 | etot = 4728.82967535242
436  ekin = 4728.20198955864 | epot = 0.627685790722518 | etot = 4728.82967534936
437  ekin = 4728.20612366046 | epot = 0.623551685902279 | etot = 4728.82967534636
438  ekin = 4728.21024549427 | epot = 0.619429849161573 | etot = 4728.82967534343
439  ekin = 4728.21435499085 | epot = 0.615320349711379 | etot = 4728.82967534056
440  ekin = 4728.21845208197 | epot = 0.611223255786302 | etot = 4728.82967533776
441  ekin = 4728.22253670037 | epot = 0.60713863464672 | etot = 4728.82967533502
442  ekin = 4728.22660877976 | epot = 0.603066552581043 | etot = 4728.82967533234
443  ekin = 4728.23066825482 | epot = 0.59900707490805 | etot = 4728.82967532972
444  ekin = 4728.23471506119 | epot = 0.594960265979288 | etot = 4728.82967532717
445  ekin = 4728.2387491355 | epot = 0.590926189181604 | etot = 4728.82967532468
446  ekin = 4728.24277041532 | epot = 0.586904906939694 | etot = 4728.82967532226
447  ekin = 4728.24677883917 | epot = 0.582896480718792 | etot = 4728.82967531989
448  ekin = 4728.25077434656 | epot = 0.57890097102738 | etot = 4728.82967531759
449  ekin = 4728.25475687793 | epot = 0.574918437420021 | etot = 4728.82967531535
450  ekin = 4728.25872637467 | epot = 0.570948938500287 | etot = 4728.82967531317
451  ekin = 4728.26268277913 | epot = 0.566992531923656 | etot = 4728.82967531105
452  ekin = 4728.2666260346 | epot = 0.563049274400611 | etot = 4728.829675309
453  ekin = 4728.2705560853 | epot = 0.559119221699732 | etot = 4728.829675307
454  ekin = 4728.27447287642 | epot = 0.55520242865089 | etot = 4728.82967530507
455  ekin = 4728.27837635404 | epot = 0.551298949148518 | etot = 4728.82967530319
456  ekin = 4728.28226646522 | epot = 0.547408836154896 | etot = 4728.82967530138
457  ekin = 4728.28614315792 | epot = 0.543532141703596 | etot = 4728.82967529962
458  ekin = 4728.29000638103 | epot = 0.539668916902892 | etot = 4728.82967529793
459  ekin = 4728.29385608435 | epot = 0.535819211939335 | etot = 4728.82967529629
460  ekin = 4728.29769221864 | epot = 0.531983076081316 | etot = 4728.82967529472
461  ekin = 4728.30151473552 | epot = 0.528160557682715 | etot = 4728.8296752932
462  ekin = 4728.30532358755 | epot = 0.524351704186617 | etot = 4728.82967529174
463  ekin = 4728.30911872821 | epot = 0.520556562129099 | etot = 4728.82967529034
464  ekin = 4728.31290011185 | epot = 0.516775177143052 | etot = 4728.829675289
465  ekin = 4728.31666769375 | epot = 0.513007593962091 | etot = 4728.82967528771
466  ekin = 4728.32042143005 | epot = 0.509253856424477 | etot = 4728.82967528648
467  ekin = 4728.32416127783 | epot = 0.505514007477148 | etot = 4728.82967528531
468  ekin = 4728.32788719501 | epot = 0.501788089179749 | etot = 4728.82967528419
469  ekin = 4728.33159914043 | epot = 0.498076142708767 | etot = 4728.82967528313
470  ekin = 4728.33529707377 | epot = 0.494378208361701 | etot = 4728.82967528213
471  ekin = 4728.33898095562 | epot = 0.490694325561242 | etot = 4728.82967528118
472  ekin = 4728.34265074743 | epot = 0.48702453285958 | etot = 4728.82967528029
473  ekin = 4728.34630641151 | epot = 0.483368867942686 | etot = 4728.82967527946
474  ekin = 4728.34994791104 | epot = 0.479727367634696 | etot = 4728.82967527867
475  ekin = 4728.35357521005 | epot = 0.47610006790229 | etot = 4728.82967527795
476  ekin = 4728.35718827342 | epot = 0.472487003859171 | etot = 4728.82967527727
477  ekin = 4728.36078706689 | epot = 0.46888820977054 | etot = 4728.82967527666
478  ekin = 4728.36437155703 | epot = 0.465303719057656 | etot = 4728.82967527609
479  ekin = 4728.36794171128 | epot = 0.461733564302385 | etot = 4728.82967527558
480  ekin = 4728.37149749787 | epot = 0.45817777725186 | etot = 4728.82967527512
481  ekin = 4728.37503888589 | epot = 0.454636388823104 | etot = 4728.82967527471
482  ekin = 4728.37856584525 | epot = 0.451109429107744 | etot = 4728.82967527435
483  ekin = 4728.38207834667 | epot = 0.447596927376754 | etot = 4728.82967527405
484  ekin = 4728.38557636171 | epot = 0.444098912085206 | etot = 4728.8296752738
485  ekin = 4728.38905986272 | epot = 0.440615410877111 | etot = 4728.8296752736
486  ekin = 4728.39252882286 | epot = 0.437146450590198 | etot = 4728.82967527345
487  ekin = 4728.39598321609 | epot = 0.433692057260854 | etot = 4728.82967527335
488  ekin = 4728.39942301717 | epot = 0.430252256128992 | etot = 4728.8296752733
489  ekin = 4728.40284820165 | epot = 0.426827071642979 | etot = 4728.8296752733
490  ekin = 4728.40625874588 | epot = 0.423416527464619 | etot = 4728.82967527335
491  ekin = 4728.40965462697 | epot = 0.420020646474154 | etot = 4728.82967527344
492  ekin = 4728.41303582282 | epot = 0.416639450775251 | etot = 4728.82967527359
493  ekin = 4728.41640231208 | epot = 0.413272961700075 | etot = 4728.82967527379
494  ekin = 4728.41975407421 | epot = 0.409921199814359 | etot = 4728.82967527403
495  ekin = 4728.42309108939 | epot = 0.406584184922488 | etot = 4728.82967527432
496  ekin = 4728.42641333858 | epot = 0.403261936072631 | etot = 4728.82967527465
497  ekin = 4728.42972080347 | epot = 0.399954471561889 | etot = 4728.82967527503
498  ekin = 4728.43301346652 | epot = 0.396661808941432 | etot = 4728.82967527546
499  ekin = 4728.43629131092 | epot = 0.393383965021713 | etot = 4728.82967527594
500  ekin = 4728.43955432058 | epot = 0.390120955877654 | etot = 4728.82967527646
501  ekin = 4728.44280248017 | epot = 0.386872796853879 | etot = 4728.82967527702
502  ekin = 4728.44603577507 | epot = 0.38363950256995 | etot = 4728.82967527764
503  ekin = 4728.44925419137 | epot = 0.380421086925613 | etot = 4728.82967527829
504  ekin = 4728.45245771589 | epot = 0.377217563106093 | etot = 4728.82967527899
505  ekin = 4728.45564633615 | epot = 0.37402894358737 | etot = 4728.82967527974
506  ekin = 4728.45882004038 | epot = 0.370855240141464 | etot = 4728.82967528052
507  ekin = 4728.46197881751 | epot = 0.367696463841783 | etot = 4728.82967528135
508  ekin = 4728.46512265716 | epot = 0.364552625068423 | etot = 4728.82967528223
509  ekin = 4728.46825154963 | epot = 0.36142373351351 | etot = 4728.82967528314
510  ekin = 4728.47136548591 | epot = 0.358309798186552 | etot = 4728.8296752841
511  ekin = 4728.47446445768 | epot = 0.355210827419809 | etot = 4728.8296752851
512  ekin = 4728.47754845726 | epot = 0.35212682887364 | etot = 4728.82967528614
513  ekin = 4728.48061747767 | epot = 0.349057809541873 | etot = 4728.82967528722
514  ekin = 4728.48367151258 | epot = 0.346003775757217 | etot = 4728.82967528834
515  ekin = 4728.4867105563 | epot = 0.342964733196621 | etot = 4728.8296752895
516  ekin = 4728.48973460381 | epot = 0.339940686886681 | etot = 4728.8296752907
517  ekin = 4728.49274365073 | epot = 0.336931641209027 | etot = 4728.82967529194
518  ekin = 4728.49573769331 | epot = 0.333937599905729 | etot = 4728.82967529322
519  ekin = 4728.49871672845 | epot = 0.330958566084707 | etot = 4728.82967529453
520  ekin = 4728.50168075366 | epot = 0.327994542225144 | etot = 4728.82967529589
521  ekin = 4728.5046297671 | epot = 0.325045530182871 | etot = 4728.82967529728
522  ekin = 4728.50756376751 | epot = 0.322111531195798 | etot = 4728.82967529871
523  ekin = 4728.51048275429 | epot = 0.319192545889313 | etot = 4728.82967530018
524  ekin = 4728.5133867274 | epot = 0.316288574281697 | etot = 4728.82967530168
525  ekin = 4728.51627568743 | epot = 0.313399615789523 | etot = 4728.82967530322
526  ekin = 4728.51914963556 | epot = 0.310525669233073 | etot = 4728.8296753048
527  ekin = 4728.52200857357 | epot = 0.307666732841737 | etot = 4728.82967530641
528  ekin = 4728.52485250379 | epot = 0.304822804259405 | etot = 4728.82967530805
529  ekin = 4728.52768142918 | epot = 0.301993880549869 | etot = 4728.82967530973
530  ekin = 4728.53049535325 | epot = 0.299179958202218 | etot = 4728.82967531145
531  ekin = 4728.53329428006 | epot = 0.296381033136215 | etot = 4728.8296753132
532  ekin = 4728.53607821427 | epot = 0.293597100707686 | etot = 4728.82967531498
533  ekin = 4728.53884716108 | epot = 0.290828155713877 | etot = 4728.8296753168
534  ekin = 4728.54160112625 | epot = 0.28807419239884 | etot = 4728.82967531865
535  ekin = 4728.54434011607 | epot = 0.285335204458775 | etot = 4728.82967532053
536  ekin = 4728.54706413739 | epot = 0.282611185047391 | etot = 4728.82967532244
537  ekin = 4728.5497731976 | epot = 0.279902126781246 | etot = 4728.82967532439
538  ekin = 4728.55246730462 | epot = 0.277208021745063 | etot = 4728.82967532636
539  ekin = 4728.55514646687 | epot = 0.274528861497065 | etot = 4728.82967532837
540  ekin = 4728.55781069333 | epot = 0.271864637074276 | etot = 4728.82967533041
541  ekin = 4728.56045999348 | epot = 0.269215338997839 | etot = 4728.82967533248
542  ekin = 4728.5630943773 | epot = 0.266580957278279 | etot = 4728.82967533457
543  ekin = 4728.56571385528 | epot = 0.2639614814208 | etot = 4728.8296753367
544  ekin = 4728.56831843843 | epot = 0.261356900430522 | etot = 4728.82967533886
545  ekin = 4728.57090813823 | epot = 0.258767202817755 | etot = 4728.82967534105
546  ekin = 4728.57348296666 | epot = 0.256192376603214 | etot = 4728.82967534326
547  ekin = 4728.57604293618 | epot = 0.253632409323262 | etot = 4728.8296753455
548  ekin = 4728.57858805974 | epot = 0.251087288035088 | etot = 4728.82967534777
549  ekin = 4728.58111835075 | epot = 0.248556999321929 | etot = 4728.82967535007
550  ekin = 4728.5836338231 | epot = 0.246041529298214 | etot = 4728.82967535239
551  ekin = 4728.58613449113 | epot = 0.243540863614749 | etot = 4728.82967535474
552  ekin = 4728.58862036966 | epot = 0.241054987463861 | etot = 4728.82967535712
553  ekin = 4728.59109147394 | epot = 0.238583885584472 | etot = 4728.82967535953
554  ekin = 4728.59354781969 | epot = 0.236127542267293 | etot = 4728.82967536196
555  ekin = 4728.59678903731 | epot = 0.382897573978703 | etot = 4728.97968661129
556  ekin = 4728.60081348682 | epot = 0.378873121455741 | etot = 4728.97968660827
557  ekin = 4728.60481714416 | epot = 0.374869461230224 | etot = 4728.97968660539
558  ekin = 4728.60879992359 | epot = 0.370886679046707 | etot = 4728.97968660264
559  ekin = 4728.61276174147 | epot = 0.366924858558619 | etot = 4728.97968660002
560  ekin = 4728.61670251621 | epot = 0.362984081336645 | etot = 4728.97968659754
561  ekin = 1.57124532814417e+47 | epot = 5.11680835948551e+24 | etot = 1.57124532814417e+47
562  ekin = 3229.00430468468 | epot = 5.11680835948551e+24 | etot = 5.11680835948551e+24
563  ekin = 3229.00510009852 | epot = 5.11680835948551e+24 | etot = 5.11680835948551e+24
564  ekin = 3229.00589146098 | epot = 5.11680835948551e+24 | etot = 5.11680835948551e+24
565  ekin = 3229.00667876353 | epot = 5.11680835948551e+24 | etot = 5.11680835948551e+24
566  ekin = 3229.00746199785 | epot = 5.11680835948551e+24 | etot = 5.11680835948551e+24
567  ekin = 3229.00824115586 | epot = 5.11680835948551e+24 | etot = 5.11680835948551e+24
568  ekin = 3229.0090162297 | epot = 5.11680835948551e+24 | etot = 5.11680835948551e+24
569  ekin = 3229.00978721176 | epot = 5.11680835948551e+24 | etot = 5.11680835948551e+24
570  ekin = 3229.01055409462 | epot = 5.11680835948551e+24 | etot = 5.11680835948551e+24
571  ekin = 3229.01131687112 | epot = 5.11680835948551e+24 | etot = 5.11680835948551e+24
572  ekin = 3229.01207553429 | epot = 5.11680835948551e+24 | etot = 5.11680835948551e+24
573  ekin = 3229.0128300774 | epot = 5.11680835948551e+24 | etot = 5.11680835948551e+24
574  ekin = 3229.01358049395 | epot = 5.11680835948551e+24 | etot = 5.11680835948551e+24
575  ekin = 3229.01432677762 | epot = 5.11680835948551e+24 | etot = 5.11680835948551e+24
576  ekin = 3229.01506892235 | epot = 5.11680835948551e+24 | etot = 5.11680835948551e+24
577  ekin = 3229.01580692228 | epot = 5.11680835948551e+24 | etot = 5.11680835948551e+24
578  ekin = 3229.01654077174 | epot = 5.11680835948551e+24 | etot = 5.11680835948551e+24
579  ekin = 3229.01727046532 | epot = 5.11680835948551e+24 | etot = 5.11680835948551e+24
580  ekin = 3229.01799599777 | epot = 5.11680835948551e+24 | etot = 5.11680835948551e+24
581  ekin = 3229.0187173641 | epot = 5.11680835948551e+24 | etot = 5.11680835948551e+24
582  ekin = 3229.01943455948 | epot = 5.11680835948551e+24 | etot = 5.11680835948551e+24
583  ekin = 3229.02014757933 | epot = 5.11680835948551e+24 | etot = 5.11680835948551e+24
584  ekin = 3229.02085641924 | epot = 5.11680835948551e+24 | etot = 5.11680835948551e+24
585  ekin = 3229.02156107503 | epot = 5.11680835948551e+24 | etot = 5.11680835948551e+24
586  ekin = 3229.02226154272 | epot = 5.11680835948551e+24 | etot = 5.11680835948551e+24
587  ekin = 3229.02295781851 | epot = 5.11680835948551e+24 | etot = 5.11680835948551e+24
588  ekin = 3229.02364989882 | epot = 5.11680835948551e+24 | etot = 5.11680835948551e+24
589  ekin = 3229.02433778027 | epot = 5.11680835948551e+24 | etot = 5.11680835948551e+24
590  ekin = 3229.02502145966 | epot = 5.11680835948551e+24 | etot = 5.11680835948551e+24
591  ekin = 3229.025700934 | epot = 5.11680835948551e+24 | etot = 5.11680835948551e+24
592  ekin = 3229.02637620048 | epot = 5.11680835948551e+24 | etot = 5.11680835948551e+24
593  ekin = 3229.02704725651 | epot = 5.11680835948551e+24 | etot = 5.11680835948551e+24
594  ekin = 3229.02771409966 | epot = 5.11680835948551e+24 | etot = 5.11680835948551e+24
595  ekin = 3229.02837672771 | epot = 5.11680835948551e+24 | etot = 5.11680835948551e+24
596  ekin = 3229.02903513861 | epot = 5.11680835948551e+24 | etot = 5.11680835948551e+24
597  ekin = 3229.02968933052 | epot = 5.11680835948551e+24 | etot = 5.11680835948551e+24
598  ekin = 3229.03033930176 | epot = 5.11680835948551e+24 | etot = 5.11680835948551e+24
599  ekin = 3229.03098505086 | epot = 5.11680835948551e+24 | etot = 5.11680835948551e+24
600  ekin = 3229.03162657652 | epot = 5.11680835948551e+24 | etot = 5.11680835948551e+24
601  ekin = 3229.03226387761 | epot = 5.11680835948551e+24 | etot = 5.11680835948551e+24
602  ekin = 3229.0328969532 | epot = 5.11680835948551e+24 | etot = 5.11680835948551e+24
603  ekin = 3229.03352580252 | epot = 5.11680835948551e+24 | etot = 5.11680835948551e+24
604  ekin = 3229.03415042499 | epot = 5.11680835948551e+24 | etot = 5.11680835948551e+24
605  ekin = 3229.0347708202 | epot = 5.11680835948551e+24 | etot = 5.11680835948551e+24
606  ekin = 3229.03538698791 | epot = 5.11680835948551e+24 | etot = 5.11680835948551e+24
607  ekin = 3229.03599892806 | epot = 5.11680835948551e+24 | etot = 5.11680835948551e+24
608  ekin = 3229.03660664075 | epot = 5.11680835948551e+24 | etot = 5.11680835948551e+24
609  ekin = 3229.03721012626 | epot = 5.11680835948551e+24 | etot = 5.11680835948551e+24
610  ekin = 3229.03780938503 | epot = 5.11680835948551e+24 | etot = 5.11680835948551e+24
611  ekin = 3229.03840441768 | epot = 5.11680835948551e+24 | etot = 5.11680835948551e+24
612  ekin = 3229.03899522497 | epot = 5.11680835948551e+24 | etot = 5.11680835948551e+24
613  ekin = 3229.03958180785 | epot = 5.11680835948551e+24 | etot = 5.11680835948551e+24
614  ekin = 3229.04016416742 | epot = 5.11680835948551e+24 | etot = 5.11680835948551e+24
615  ekin = 3229.04074230495 | epot = 5.11680835948551e+24 | etot = 5.11680835948551e+24
616  ekin = 3229.04131622184 | epot = 5.11680835948551e+24 | etot = 5.11680835948551e+24
617  ekin = 3229.04188591968 | epot = 5.11680835948551e+24 | etot = 5.11680835948551e+24
618  ekin = 3229.0424514002 | epot = 5.11680835948551e+24 | etot = 5.11680835948551e+24
619  ekin = 3229.04301266529 | epot = 5.11680835948551e+24 | etot = 5.11680835948551e+24
620  ekin = 3229.043569717 | epot = 5.11680835948551e+24 | etot = 5.11680835948551e+24
621  ekin = 3229.04412255753 | epot = 5.11680835948551e+24 | etot = 5.11680835948551e+24
622  ekin = 3229.04467118921 | epot = 5.11680835948551e+24 | etot = 5.11680835948551e+24
623  ekin = 3229.04521561454 | epot = 5.11680835948551e+24 | etot = 5.11680835948551e+24
624  ekin = 3229.04575583616 | epot = 5.11680835948551e+24 | etot = 5.11680835948551e+24
625  ekin = 3229.04629185687 | epot = 5.11680835948551e+24 | etot = 5.11680835948551e+24
626  ekin = 3229.0468236796 | epot = 5.11680835948551e+24 | etot = 5.11680835948551e+24
627  ekin = 3229.04735130742 | epot = 5.11680835948551e+24 | etot = 5.11680835948551e+24
628  ekin = 3229.04787474356 | epot = 5.11680835948551e+24 | etot = 5.11680835948551e+24
629  ekin = 3229.04839399137 | epot = 5.11680835948551e+24 | etot = 5.11680835948551e+24
630  ekin = 3229.04890905436 | epot = 5.11680835948551e+24 | etot = 5.11680835948551e+24
631  ekin = 3229.04941993616 | epot = 5.11680835948551e+24 | etot = 5.11680835948551e+24
632  ekin = 3229.04992664055 | epot = 5.11680835948551e+24 | etot = 5.11680835948551e+24
633  ekin = 3229.05042917144 | epot = 5.11680835948551e+24 | etot = 5.11680835948551e+24
634  ekin = 3229.05092753286 | epot = 5.11680835948551e+24 | etot = 5.11680835948551e+24
635  ekin = 3229.05142172901 | epot = 5.11680835948551e+24 | etot = 5.11680835948551e+24
636  ekin = 3229.05191176417 | epot = 5.11680835948551e+24 | etot = 5.11680835948551e+24
637  ekin = 3229.05239764279 | epot = 5.11680835948551e+24 | etot = 5.11680835948551e+24
638  ekin = 3229.05287936944 | epot = 5.11680835948551e+24 | etot = 5.11680835948551e+24
639  ekin = 3229.0533569488 | epot = 5.11680835948551e+24 | etot = 5.11680835948551e+24
640  ekin = 3229.05383038569 | epot = 5.11680835948551e+24 | etot = 5.11680835948551e+24
641  ekin = 3229.05429968505 | epot = 5.11680835948551e+24 | etot = 5.11680835948551e+24
642  ekin = 3229.05476485195 | epot = 5.11680835948551e+24 | etot = 5.11680835948551e+24
643  ekin = 3229.05522589157 | epot = 5.11680835948551e+24 | etot = 5.11680835948551e+24
644  ekin = 3229.05568280923 | epot = 5.11680835948551e+24 | etot = 5.11680835948551e+24
645  ekin = 3229.05613561033 | epot = 5.11680835948551e+24 | etot = 5.11680835948551e+24
646  ekin = 3229.05658430043 | epot = 5.11680835948551e+24 | etot = 5.11680835948551e+24
647  ekin = 3229.05702888519 | epot = 5.11680835948551e+24 | etot = 5.11680835948551e+24
648  ekin = 3229.05746937037 | epot = 5.11680835948551e+24 | etot = 5.11680835948551e+24
649  ekin = 3229.05790576186 | epot = 5.11680835948551e+24 | etot = 5.11680835948551e+24
650  ekin = 3229.05833806567 | epot = 5.11680835948551e+24 | etot = 5.11680835948551e+24
651  ekin = 3229.05876628791 | epot = 5.11680835948551e+24 | etot = 5.11680835948551e+24
652  ekin = 3229.05919043478 | epot = 5.11680835948551e+24 | etot = 5.11680835948551e+24
653  ekin = 3229.05961051263 | epot = 5.11680835948551e+24 | etot = 5.11680835948551e+24
654  ekin = 3229.06002652788 | epot = 5.11680835948551e+24 | etot = 5.11680835948551e+24
655  ekin = 3229.06043848708 | epot = 5.11680835948551e+24 | etot = 5.11680835948551e+24
656  ekin = 3229.06084639688 | epot = 5.11680835948551e+24 | etot = 5.11680835948551e+24
657  ekin = 3229.06125026402 | epot = 5.11680835948551e+24 | etot = 5.11680835948551e+24
658  ekin = 3229.06165009535 | epot = 5.11680835948551e+24 | etot = 5.11680835948551e+24
659  ekin = 3229.06204589782 | epot = 5.11680835948551e+24 | etot = 5.11680835948551e+24
660  ekin = 3229.06243767849 | epot = 5.11680835948551e+24 | etot = 5.11680835948551e+24
661  ekin = 3229.06282544451 | epot = 5.11680835948551e+24 | etot = 5.11680835948551e+24
662  ekin = 3229.06320920312 | epot = 5.11680835948551e+24 | etot = 5.11680835948551e+24
663  ekin = 3229.06358896166 | epot = 5.11680835948551e+24 | etot = 5.11680835948551e+24
664  ekin = 3229.06396472758 | epot = 5.11680835948551e+24 | etot = 5.11680835948551e+24
665  ekin = 3229.06433650839 | epot = 5.11680835948551e+24 | etot = 5.11680835948551e+24
666  ekin = 3229.06470431173 | epot = 5.11680835948551e+24 | etot = 5.11680835948551e+24
667  ekin = 3229.06506814531 | epot = 5.11680835948551e+24 | etot = 5.11680835948551e+24
668  ekin = 3229.06542801693 | epot = 5.11680835948551e+24 | etot = 5.11680835948551e+24
669  ekin = 3229.06578393447 | epot = 5.11680835948551e+24 | etot = 5.11680835948551e+24
670  ekin = 3229.06613590593 | epot = 5.11680835948551e+24 | etot = 5.11680835948551e+24
671  ekin = 3229.06648393936 | epot = 5.11680835948551e+24 | etot = 5.11680835948551e+24
672  ekin = 3229.06682804292 | epot = 5.11680835948551e+24 | etot = 5.11680835948551e+24
673  ekin = 3229.06716822484 | epot = 5.11680835948551e+24 | etot = 5.11680835948551e+24
674  ekin = 3229.06750449343 | epot = 5.11680835948551e+24 | etot = 5.11680835948551e+24
675  ekin = 3229.06783685709 | epot = 5.11680835948551e+24 | etot = 5.11680835948551e+24
676  ekin = 3229.0681653243 | epot = 5.11680835948551e+24 | etot = 5.11680835948551e+24
677  ekin = 3229.06848990363 | epot = 5.11680835948551e+24 | etot = 5.11680835948551e+24
678  ekin = 3229.06881060369 | epot = 5.11680835948551e+24 | etot = 5.11680835948551e+24
679  ekin = 3229.06912743321 | epot = 5.11680835948551e+24 | etot = 5.11680835948551e+24
680  ekin = 3229.06944040098 | epot = 5.11680835948551e+24 | etot = 5.11680835948551e+24
681  ekin = 3229.06974951585 | epot = 5.11680835948551e+24 | etot = 5.11680835948551e+24
682  ekin = 3229.07005478677 | epot = 5.11680835948551e+24 | etot = 5.11680835948551e+24
683  ekin = 3229.07035622274 | epot = 5.11680835948551e+24 | etot = 5.11680835948551e+24
684  ekin = 3229.07065383284 | epot = 5.11680835948551e+24 | etot = 5.11680835948551e+24
685  ekin = 3229.07094762622 | epot = 5.11680835948551e+24 | etot = 5.11680835948551e+24
686  ekin = 3229.07123761211 | epot = 5.11680835948551e+24 | etot = 5.11680835948551e+24
687  ekin = 3229.07152379978 | epot = 5.11680835948551e+24 | etot = 5.11680835948551e+24
688  ekin = 3229.07180619861 | epot = 5.11680835948551e+24 | etot = 5.11680835948551e+24
689  ekin = 3229.07208481799 | epot = 5.11680835948551e+24 | etot = 5.11680835948551e+24
690  ekin = 3229.07235966743 | epot = 5.11680835948551e+24 | etot = 5.11680835948551e+24
691  ekin = 3229.07263075647 | epot = 5.11680835948551e+24 | etot = 5.11680835948551e+24
692  ekin = 3229.07289809473 | epot = 5.11680835948551e+24 | etot = 5.11680835948551e+24
693  ekin = 3229.07316169187 | epot = 5.11680835948551e+24 | etot = 5.11680835948551e+24
694  ekin = 3229.07342155763 | epot = 5.11680835948551e+24 | etot = 5.11680835948551e+24
695  ekin = 3229.07367770182 | epot = 5.11680835948551e+24 | etot = 5.11680835948551e+24
696  ekin = 3229.07393013427 | epot = 5.11680835948551e+24 | etot = 5.11680835948551e+24
697  ekin = 3229.07417886491 | epot = 5.11680835948551e+24 | etot = 5.11680835948551e+24
698  ekin = 3229.07442390369 | epot = 5.11680835948551e+24 | etot = 5.11680835948551e+24
699  ekin = 3229.07466526065 | epot = 5.11680835948551e+24 | etot = 5.11680835948551e+24
700  ekin = 3229.07490294586 | epot = 5.11680835948551e+24 | etot = 5.11680835948551e+24
701  ekin = 3229.07513696946 | epot = 5.11680835948551e+24 | etot = 5.11680835948551e+24
702  ekin = 3229.07536734163 | epot = 5.11680835948551e+24 | etot = 5.11680835948551e+24
703  ekin = 3229.0755940726 | epot = 5.11680835948551e+24 | etot = 5.11680835948551e+24
704  ekin = 3229.07581717266 | epot = 5.11680835948551e+24 | etot = 5.11680835948551e+24
705  ekin = 3229.07603665216 | epot = 5.11680835948551e+24 | etot = 5.11680835948551e+24
706  ekin = 3229.07625252147 | epot = 5.11680835948551e+24 | etot = 5.11680835948551e+24
707  ekin = 3229.07646479103 | epot = 5.11680835948551e+24 | etot = 5.11680835948551e+24
708  ekin = 3229.07667347133 | epot = 5.11680835948551e+24 | etot = 5.11680835948551e+24
709  ekin = 3229.07687857289 | epot = 5.11680835948551e+24 | etot = 5.11680835948551e+24
710  ekin = 3229.07708010628 | epot = 5.11680835948551e+24 | etot = 5.11680835948551e+24
711  ekin = 3229.07727808212 | epot = 5.11680835948551e+24 | etot = 5.11680835948551e+24
712  ekin = 3229.07747251107 | epot = 5.11680835948551e+24 | etot = 5.11680835948551e+24
713  ekin = 3229.07766340384 | epot = 5.11680835948551e+24 | etot = 5.11680835948551e+24
714  ekin = 3229.07785077116 | epot = 5.11680835948551e+24 | etot = 5.11680835948551e+24
715  ekin = 3229.07803462383 | epot = 5.11680835948551e+24 | etot = 5.11680835948551e+24
716  ekin = 3229.07821497267 | epot = 5.11680835948551e+24 | etot = 5.11680835948551e+24
717  ekin = 3229.07839182854 | epot = 5.11680835948551e+24 | etot = 5.11680835948551e+24
718  ekin = 3229.07856520235 | epot = 5.11680835948551e+24 | etot = 5.11680835948551e+24
719  ekin = 3229.07873510503 | epot = 5.11680835948551e+24 | etot = 5.11680835948551e+24
720  ekin = 3229.07890154756 | epot = 5.11680835948551e+24 | etot = 5.11680835948551e+24
721  ekin = 3229.07906454096 | epot = 5.11680835948551e+24 | etot = 5.11680835948551e+24
722  ekin = 3229.07922409627 | epot = 5.11680835948551e+24 | etot = 5.11680835948551e+24
723  ekin = 3229.07938022457 | epot = 5.11680835948551e+24 | etot = 5.11680835948551e+24
724  ekin = 3229.07953293697 | epot = 5.11680835948551e+24 | etot = 5.11680835948551e+24
725  ekin = 3229.07968224462 | epot = 0.00338797228836529 | etot = 3229.0830702169
726  ekin = 3229.07982815869 | epot = 0.00324205920177079 | etot = 3229.08307021789
727  ekin = 3229.0799706904 | epot = 0.00309952848287931 | etot = 3229.08307021888
728  ekin = 3229.08010985098 | epot = 0.00296036889412377 | etot = 3229.08307021987
729  ekin = 3229.08024565169 | epot = 0.00282456916887819 | etot = 3229.08307022086
730  ekin = 3229.08037810384 | epot = 0.0026921180122399 | etot = 3229.08307022185
731  ekin = 3229.08050721874 | epot = 0.00256300410180754 | etot = 3229.08307022285
732  ekin = 3229.08063300775 | epot = 0.00243721608845038 | etot = 3229.08307022384
733  ekin = 3229.08075548224 | epot = 0.00231474259707187 | etot = 3229.08307022483
734  ekin = 3229.0808746536 | epot = 0.00219557222736644 | etot = 3229.08307022583
735  ekin = 3229.08099053327 | epot = 0.0020796935545695 | etot = 3229.08307022682
736  ekin = 3229.08110313269 | epot = 0.00196709513020066 | etot = 3229.08307022782
737  ekin = 3229.08121246333 | epot = 0.0018577654828017 | etot = 3229.08307022882
738  ekin = 3229.08131853669 | epot = 0.00175169311866674 | etot = 3229.08307022981
739  ekin = 3229.08142136429 | epot = 0.00164886652256568 | etot = 3229.08307023081
740  ekin = 3229.08152095765 | epot = 0.0015492741584624 | etot = 3229.08307023181
741  ekin = 3229.08161732834 | epot = 0.00145290447022539 | etot = 3229.08307023281
742  ekin = 3229.08171048792 | epot = 0.00135974588233245 | etot = 3229.0830702338
743  ekin = 3229.081800448 | epot = 0.00126978680056944 | etot = 3229.0830702348
744  ekin = 3229.08188722019 | epot = 0.00118301561272083 | etot = 3229.0830702358
745  ekin = 3229.08197081611 | epot = 0.00109942068925573 | etot = 3229.0830702368
746  ekin = 3229.08205124742 | epot = 0.00101899038400732 | etot = 3229.0830702378
747  ekin = 3229.08212852576 | epot = 0.000941713034845137 | etot = 3229.0830702388
748  ekin = 3229.08220266283 | epot = 0.000867576964341032 | etot = 3229.0830702398
749  ekin = 3229.08227367032 | epot = 0.000796570480430137 | etot = 3229.0830702408
750  ekin = 3229.08234155992 | epot = 0.000728681877063653 | etot = 3229.0830702418
751  ekin = 3229.08240634336 | epot = 0.000663899434857673 | etot = 3229.0830702428
752  ekin = 3229.08246803237 | epot = 0.000602211421733445 | etot = 3229.0830702438
753  ekin = 3229.0825266387 | epot = 0.000543606093553084 | etot = 3229.0830702448
754  ekin = 3229.0825821741 | epot = 0.000488071694748515 | etot = 3229.08307024579
755  ekin = 3229.08263465033 | epot = 0.00043559645894431 | etot = 3229.08307024679
756  ekin = 3229.08268407918 | epot = 0.000386168609574855 | etot = 3229.08307024779
757  ekin = 3229.08273047243 | epot = 0.000339776360494315 | etot = 3229.08307024879
758  ekin = 3229.08277384187 | epot = 0.000296407916581809 | etot = 3229.08307024979
759  ekin = 3229.08281419931 | epot = 0.000256051474339714 | etot = 3229.08307025078
760  ekin = 3229.08285155656 | epot = 0.000218695222486853 | etot = 3229.08307025178
761  ekin = 3229.08288592544 | epot = 0.000184327342544366 | etot = 3229.08307025278
762  ekin = 3229.08291731776 | epot = 0.000152936009416793 | etot = 3229.08307025377
763  ekin = 3229.08294574538 | epot = 0.000124509391967065 | etot = 3229.08307025477
764  ekin = 3229.08297122011 | epot = 9.90356535847114e-05 | etot = 3229.08307025576
765  ekin = 3229.0829937538 | epot = 7.65029527496353e-05 | etot = 3229.08307025676
766  ekin = 3229.08301335831 | epot = 5.6899443588998e-05 | etot = 3229.08307025775
767  ekin = 3229.08303004547 | epot = 4.02132764281138e-05 | etot = 3229.08307025874
768  ekin = 3229.08304382714 | epot = 2.64325983370117e-05 | etot = 3229.08307025974
769  ekin = 3229.08305471517 | epot = 1.55455536695603e-05 | etot = 3229.08307026073
770  ekin = 3229.08306272143 | epot = 7.54028459770684e-06 | etot = 3229.08307026172
771  ekin = 3229.08306785778 | epot = 2.40493164027633e-06 | etot = 3229.08307026271
772  ekin = 3229.08307013606 | epot = 1.27634185442815e-07 | etot = 3229.0830702637
773  ekin = 3229.08307056218 | epot = 0 | etot = 3229.08307056218
774  ekin = 3229.08307056218 | epot = 0 | etot = 3229.08307056218
775  ekin = 3229.08307056218 | epot = 0 | etot = 3229.08307056218
776  ekin = 3229.08307056218 | epot = 0 | etot = 3229.08307056218
777  ekin = 3229.08307056218 | epot = 0 | etot = 3229.08307056218
778  ekin = 3229.08307056218 | epot = 0 | etot = 3229.08307056218
779  ekin = 3229.08307056218 | epot = 0 | etot = 3229.08307056218
780  ekin = 3229.08307056218 | epot = 0 | etot = 3229.08307056218
781  ekin = 3229.08307056218 | epot = 0 | etot = 3229.08307056218
782  ekin = 3229.08307056218 | epot = 0 | etot = 3229.08307056218
783  ekin = 3229.08307056218 | epot = 0 | etot = 3229.08307056218
784  ekin = 3229.08307056218 | epot = 0 | etot = 3229.08307056218
785  ekin = 3229.08307056218 | epot = 0 | etot = 3229.08307056218
786  ekin = 3229.08307056218 | epot = 0 | etot = 3229.08307056218
787  ekin = 3229.08307056218 | epot = 0 | etot = 3229.08307056218
788  ekin = 3229.08307056218 | epot = 0 | etot = 3229.08307056218
789  ekin = 3229.08307056218 | epot = 0 | etot = 3229.08307056218
790  ekin = 3229.08307056218 | epot = 0 | etot = 3229.08307056218
791  ekin = 3229.08307056218 | epot = 0 | etot = 3229.08307056218
792  ekin = 3229.08307056218 | epot = 0 | etot = 3229.08307056218
793  ekin = 3229.08307056218 | epot = 0 | etot = 3229.08307056218
794  ekin = 3229.08307056218 | epot = 0 | etot = 3229.08307056218
795  ekin = 3229.08307056218 | epot = 0 | etot = 3229.08307056218
796  ekin = 3229.08307056218 | epot = 0 | etot = 3229.08307056218
797  ekin = 3229.08307056218 | epot = 0 | etot = 3229.08307056218
798  ekin = 3229.08307056218 | epot = 0 | etot = 3229.08307056218
799  ekin = 3229.08307056218 | epot = 0 | etot = 3229.08307056218
800  ekin = 3229.08307056218 | epot = 0 | etot = 3229.08307056218
801  ekin = 3229.08307056218 | epot = 0 | etot = 3229.08307056218
802  ekin = 3229.08307056218 | epot = 0 | etot = 3229.08307056218
803  ekin = 3229.08307056218 | epot = 0 | etot = 3229.08307056218
804  ekin = 3229.08307056218 | epot = 0 | etot = 3229.08307056218
805  ekin = 3229.08307056218 | epot = 0 | etot = 3229.08307056218
806  ekin = 3229.08307056218 | epot = 0 | etot = 3229.08307056218
807  ekin = 3229.08307056218 | epot = 0 | etot = 3229.08307056218
808  ekin = 3229.08307056218 | epot = 0 | etot = 3229.08307056218
809  ekin = 3229.08307056218 | epot = 0 | etot = 3229.08307056218
810  ekin = 3229.08307056218 | epot = 0 | etot = 3229.08307056218
811  ekin = 3229.08307056218 | epot = 0 | etot = 3229.08307056218
812  ekin = 3229.08307056218 | epot = 0 | etot = 3229.08307056218
813  ekin = 3229.08307056218 | epot = 0 | etot = 3229.08307056218
814  ekin = 3229.08307056218 | epot = 0 | etot = 3229.08307056218
815  ekin = 3229.08307056218 | epot = 0 | etot = 3229.08307056218
816  ekin = 3229.08307056218 | epot = 0 | etot = 3229.08307056218
817  ekin = 3229.08307056218 | epot = 0 | etot = 3229.08307056218
818  ekin = 3229.08307056218 | epot = 0 | etot = 3229.08307056218
819  ekin = 3229.08307056218 | epot = 0 | etot = 3229.08307056218
820  ekin = 3229.08307056218 | epot = 0 | etot = 3229.08307056218
821  ekin = 3229.08307056218 | epot = 0 | etot = 3229.08307056218
822  ekin = 3229.08307056218 | epot = 0 | etot = 3229.08307056218
823  ekin = 3229.08307056218 | epot = 0 | etot = 3229.08307056218
824  ekin = 3229.08307056218 | epot = 0 | etot = 3229.08307056218
825  ekin = 3229.08307056218 | epot = 0 | etot = 3229.08307056218
826  ekin = 3229.08307056218 | epot = 0 | etot = 3229.08307056218
827  ekin = 3229.08307056218 | epot = 0 | etot = 3229.08307056218
828  ekin = 3229.08307056218 | epot = 0 | etot = 3229.08307056218
829  ekin = 3229.08307056218 | epot = 0 | etot = 3229.08307056218
830  ekin = 3229.08307056218 | epot = 0 | etot = 3229.08307056218
831  ekin = 3229.08307056218 | epot = 0 | etot = 3229.08307056218
832  ekin = 3229.08307056218 | epot = 0 | etot = 3229.08307056218
833  ekin = 3229.08307056218 | epot = 0 | etot = 3229.08307056218
834  ekin = 3229.08307056218 | epot = 0 | etot = 3229.08307056218
835  ekin = 3229.08307056218 | epot = 0 | etot = 3229.08307056218
836  ekin = 3229.08307056218 | epot = 0 | etot = 3229.08307056218
837  ekin = 3229.08307056218 | epot = 0 | etot = 3229.08307056218
838  ekin = 3229.08307056218 | epot = 0 | etot = 3229.08307056218
839  ekin = 3229.08307056218 | epot = 0 | etot = 3229.08307056218
840  ekin = 3229.08307056218 | epot = 0 | etot = 3229.08307056218
841  ekin = 3229.08307056218 | epot = 0 | etot = 3229.08307056218
842  ekin = 3229.08307056218 | epot = 0 | etot = 3229.08307056218
843  ekin = 3229.08307056218 | epot = 0 | etot = 3229.08307056218
844  ekin = 3229.08307056218 | epot = 0 | etot = 3229.08307056218
845  ekin = 3229.08307056218 | epot = 0 | etot = 3229.08307056218
846  ekin = 3229.08307056218 | epot = 0 | etot = 3229.08307056218
847  ekin = 3229.08307056218 | epot = 0 | etot = 3229.08307056218
848  ekin = 3229.08307056218 | epot = 0 | etot = 3229.08307056218
849  ekin = 3229.08307056218 | epot = 0 | etot = 3229.08307056218
850  ekin = 3229.08307056218 | epot = 0 | etot = 3229.08307056218
851  ekin = 3229.08307056218 | epot = 0 | etot = 3229.08307056218
852  ekin = 3229.08307056218 | epot = 0 | etot = 3229.08307056218
853  ekin = 3229.08307056218 | epot = 0 | etot = 3229.08307056218
854  ekin = 3229.08307056218 | epot = 0 | etot = 3229.08307056218
855  ekin = 3229.08307056218 | epot = 0 | etot = 3229.08307056218
856  ekin = 3229.08307056218 | epot = 0 | etot = 3229.08307056218
857  ekin = 3229.08307056218 | epot = 0 | etot = 3229.08307056218
858  ekin = 3229.08307056218 | epot = 0 | etot = 3229.08307056218
859  ekin = 3229.08307056218 | epot = 0 | etot = 3229.08307056218
860  ekin = 3229.08307056218 | epot = 0 | etot = 3229.08307056218
861  ekin = 3229.08307056218 | epot = 0 | etot = 3229.08307056218
862  ekin = 3229.08307056218 | epot = 0 | etot = 3229.08307056218
863  ekin = 3229.08307056218 | epot = 0 | etot = 3229.08307056218
864  ekin = 3229.08307056218 | epot = 0 | etot = 3229.08307056218
865  ekin = 3229.08307056218 | epot = 0 | etot = 3229.08307056218
866  ekin = 3229.08307056218 | epot = 0 | etot = 3229.08307056218
867  ekin = 3229.08307056218 | epot = 0 | etot = 3229.08307056218
868  ekin = 3229.08307056218 | epot = 0 | etot = 3229.08307056218
869  ekin = 3229.08307056218 | epot = 0 | etot = 3229.08307056218
870  ekin = 3229.08307056218 | epot = 0 | etot = 3229.08307056218
871  ekin = 3229.08307056218 | epot = 0 | etot = 3229.08307056218
872  ekin = 3229.08307056218 | epot = 0 | etot = 3229.08307056218
873  ekin = 3229.08307056218 | epot = 0 | etot = 3229.08307056218
874  ekin = 3229.08307056218 | epot = 0 | etot = 3229.08307056218
875  ekin = 3229.08307056218 | epot = 0 | etot = 3229.08307056218
876  ekin = 3229.08307056218 | epot = 0 | etot = 3229.08307056218
877  ekin = 3229.08307056218 | epot = 0 | etot = 3229.08307056218
878  ekin = 3229.08307056218 | epot = 0 | etot = 3229.08307056218
879  ekin = 3229.08307056218 | epot = 0 | etot = 3229.08307056218
880  ekin = 3229.08307056218 | epot = 0 | etot = 3229.08307056218
881  ekin = 3229.08307056218 | epot = 0 | etot = 3229.08307056218
882  ekin = 3229.08307056218 | epot = 0 | etot = 3229.08307056218
883  ekin = 3229.08307056218 | epot = 0 | etot = 3229.08307056218
884  ekin = 3229.08307056218 | epot = 0 | etot = 3229.08307056218
885  ekin = 3229.08307056218 | epot = 0 | etot = 3229.08307056218
886  ekin = 3229.08307056218 | epot = 0 | etot = 3229.08307056218
887  ekin = 3229.08307056218 | epot = 0 | etot = 3229.08307056218
888  ekin = 3229.08307056218 | epot = 0 | etot = 3229.08307056218
889  ekin = 3229.08307056218 | epot = 0 | etot = 3229.08307056218
890  ekin = 3229.08307056218 | epot = 0 | etot = 3229.08307056218
891  ekin = 3229.08307056218 | epot = 0 | etot = 3229.08307056218
892  ekin = 3229.08307056218 | epot = 0 | etot = 3229.08307056218
893  ekin = 3229.08307056218 | epot = 0 | etot = 3229.08307056218
894  ekin = 3229.08307056218 | epot = 0 | etot = 3229.08307056218
895  ekin = 3229.08307056218 | epot = 0 | etot = 3229.08307056218
896  ekin = 3229.08307056218 | epot = 0 | etot = 3229.08307056218
897  ekin = 3229.08307056218 | epot = 0 | etot = 3229.08307056218
898  ekin = 3229.08307056218 | epot = 0 | etot = 3229.08307056218
899  ekin = 3229.08307056218 | epot = 0 | etot = 3229.08307056218
900  ekin = 3229.08307056218 | epot = 0 | etot = 3229.08307056218
901  ekin = 3229.08307056218 | epot = 0 | etot = 3229.08307056218
902  ekin = 3229.08307056218 | epot = 0 | etot = 3229.08307056218
903  ekin = 3229.08307056218 | epot = 0 | etot = 3229.08307056218
904  ekin = 3229.08307056218 | epot = 0 | etot = 3229.08307056218
905  ekin = 3229.08307056218 | epot = 0 | etot = 3229.08307056218
906  ekin = 3229.08307056218 | epot = 0 | etot = 3229.08307056218
907  ekin = 3229.08307056218 | epot = 0 | etot = 3229.08307056218
908  ekin = 3229.08307056218 | epot = 0 | etot = 3229.08307056218
909  ekin = 3229.08307056218 | epot = 0 | etot = 3229.08307056218
910  ekin = 3229.08307056218 | epot = 0 | etot = 3229.08307056218
911  ekin = 3229.08307056218 | epot = 0 | etot = 3229.08307056218
912  ekin = 3229.08307056218 | epot = 0 | etot = 3229.08307056218
913  ekin = 3229.08307056218 | epot = 0 | etot = 3229.08307056218
914  ekin = 3229.08307056218 | epot = 0 | etot = 3229.08307056218
915  ekin = 3229.08307056218 | epot = 0 | etot = 3229.08307056218
916  ekin = 3229.08307056218 | epot = 0 | etot = 3229.08307056218
917  ekin = 3229.08307056218 | epot = 0 | etot = 3229.08307056218
918  ekin = 3229.08307056218 | epot = 0 | etot = 3229.08307056218
919  ekin = 3229.08307056218 | epot = 0 | etot = 3229.08307056218
920  ekin = 3229.08307056218 | epot = 0 | etot = 3229.08307056218
921  ekin = 3229.08307056218 | epot = 0 | etot = 3229.08307056218
922  ekin = 3229.08307056218 | epot = 0 | etot = 3229.08307056218
923  ekin = 3229.08307056218 | epot = 0 | etot = 3229.08307056218
924  ekin = 3229.08307056218 | epot = 0 | etot = 3229.08307056218
925  ekin = 3229.08307056218 | epot = 0 | etot = 3229.08307056218
926  ekin = 3229.08307056218 | epot = 0 | etot = 3229.08307056218
927  ekin = 3229.08307056218 | epot = 0 | etot = 3229.08307056218
928  ekin = 3229.08307056218 | epot = 0 | etot = 3229.08307056218
929  ekin = 3229.08307056218 | epot = 0 | etot = 3229.08307056218
930  ekin = 3229.08307056218 | epot = 0 | etot = 3229.08307056218
931  ekin = 3229.08307056218 | epot = 0 | etot = 3229.08307056218
932  ekin = 3229.08307056218 | epot = 0 | etot = 3229.08307056218
933  ekin = 3229.08307056218 | epot = 0 | etot = 3229.08307056218
934  ekin = 3229.08307056218 | epot = 0 | etot = 3229.08307056218
935  ekin = 3229.08307056218 | epot = 0 | etot = 3229.08307056218
936  ekin = 3229.08307056218 | epot = 0 | etot = 3229.08307056218
937  ekin = 3229.08307056218 | epot = 0 | etot = 3229.08307056218
938  ekin = 3229.08307056218 | epot = 0 | etot = 3229.08307056218
939  ekin = 3229.08307056218 | epot = 0 | etot = 3229.08307056218
940  ekin = 3229.08307056218 | epot = 0 | etot = 3229.08307056218
[...]
9704  ekin = 3229.08307056218 | epot = 0 | etot = 3229.08307056218
9705  ekin = 3229.08307056218 | epot = 0 | etot = 3229.08307056218
9706  ekin = 3229.08307056218 | epot = 0 | etot = 3229.08307056218
9707  ekin = 3229.08307056218 | epot = 0 | etot = 3229.08307056218
9708  ekin = 3229.08307056218 | epot = 0 | etot = 3229.08307056218
9709  ekin = 3229.08307056218 | epot = 0 | etot = 3229.08307056218
9710  ekin = 3229.08307056218 | epot = 0 | etot = 3229.08307056218
9711  ekin = 3229.08307056218 | epot = 0 | etot = 3229.08307056218
9712  ekin = 3229.08307056218 | epot = 0 | etot = 3229.08307056218
9713  ekin = 3229.08307056218 | epot = 0 | etot = 3229.08307056218
9714  ekin = 3229.08307056218 | epot = 0 | etot = 3229.08307056218
9715  ekin = 3229.08307056218 | epot = 0 | etot = 3229.08307056218
9716  ekin = 3229.08307056218 | epot = 0 | etot = 3229.08307056218
9717  ekin = 3229.08307056218 | epot = 0 | etot = 3229.08307056218
9718  ekin = 3229.08307056218 | epot = 0 | etot = 3229.08307056218
9719  ekin = 3229.08307056218 | epot = 0 | etot = 3229.08307056218
9720  ekin = 3229.08307056218 | epot = 0 | etot = 3229.08307056218
9721  ekin = 3229.08307056218 | epot = 0 | etot = 3229.08307056218
9722  ekin = 3229.08307056218 | epot = 0 | etot = 3229.08307056218
9723  ekin = 3229.08307056218 | epot = 0 | etot = 3229.08307056218
9724  ekin = 3229.08307056218 | epot = 0 | etot = 3229.08307056218
9725  ekin = 3229.08307056218 | epot = 0 | etot = 3229.08307056218
9726  ekin = 3229.08307056218 | epot = 0 | etot = 3229.08307056218
9727  ekin = 3229.08307056218 | epot = 0 | etot = 3229.08307056218
9728  ekin = 3229.08307056218 | epot = 0 | etot = 3229.08307056218
9729  ekin = 3229.08307056218 | epot = 0 | etot = 3229.08307056218
9730  ekin = 3229.08307056218 | epot = 0 | etot = 3229.08307056218
9731  ekin = 3229.08307056218 | epot = 0 | etot = 3229.08307056218
9732  ekin = 3229.08307056218 | epot = 0 | etot = 3229.08307056218
9733  ekin = 3229.08307056218 | epot = 0 | etot = 3229.08307056218
9734  ekin = 3229.08307056218 | epot = 0 | etot = 3229.08307056218
9735  ekin = 3229.08307056218 | epot = 0 | etot = 3229.08307056218
9736  ekin = 3229.08307056218 | epot = 0 | etot = 3229.08307056218
9737  ekin = 3229.08307056218 | epot = 0 | etot = 3229.08307056218
9738  ekin = 3229.08307056218 | epot = 0 | etot = 3229.08307056218
9739  ekin = 3229.08307056218 | epot = 0 | etot = 3229.08307056218
9740  ekin = 3229.08307056218 | epot = 0 | etot = 3229.08307056218
9741  ekin = 3229.08307056218 | epot = 0 | etot = 3229.08307056218
9742  ekin = 3229.08307056218 | epot = 0 | etot = 3229.08307056218
9743  ekin = 3229.08307056218 | epot = 0 | etot = 3229.08307056218
9744  ekin = 3229.08307056218 | epot = 0 | etot = 3229.08307056218
9745  ekin = 3229.08307056218 | epot = 0 | etot = 3229.08307056218
9746  ekin = 3229.08307056218 | epot = 0 | etot = 3229.08307056218
9747  ekin = 3229.08307056218 | epot = 0 | etot = 3229.08307056218
9748  ekin = 3229.08307056218 | epot = 0 | etot = 3229.08307056218
9749  ekin = 3229.08307056218 | epot = 0 | etot = 3229.08307056218
9750  ekin = 3229.08307056218 | epot = 0 | etot = 3229.08307056218
9751  ekin = 3229.08307056218 | epot = 0 | etot = 3229.08307056218
9752  ekin = 3229.08307056218 | epot = 0 | etot = 3229.08307056218
9753  ekin = 3229.08307056218 | epot = 0 | etot = 3229.08307056218
9754  ekin = 3229.08307056218 | epot = 0 | etot = 3229.08307056218
9755  ekin = 3229.08307056218 | epot = 0 | etot = 3229.08307056218
9756  ekin = 3229.08307056218 | epot = 0 | etot = 3229.08307056218
9757  ekin = 3229.08307056218 | epot = 0 | etot = 3229.08307056218
9758  ekin = 3229.08307056218 | epot = 0 | etot = 3229.08307056218
9759  ekin = 3229.08307056218 | epot = 0 | etot = 3229.08307056218
9760  ekin = 3229.08307056218 | epot = 0 | etot = 3229.08307056218
9761  ekin = 3229.08307056218 | epot = 0 | etot = 3229.08307056218
9762  ekin = 3229.08307056218 | epot = 0 | etot = 3229.08307056218
9763  ekin = 3229.08307056218 | epot = 0 | etot = 3229.08307056218
9764  ekin = 3229.08307056218 | epot = 0 | etot = 3229.08307056218
9765  ekin = 3229.08307056218 | epot = 0 | etot = 3229.08307056218
9766  ekin = 3229.08307056218 | epot = 0 | etot = 3229.08307056218
9767  ekin = 3229.08307056218 | epot = 0 | etot = 3229.08307056218
9768  ekin = 3229.08307056218 | epot = 0 | etot = 3229.08307056218
9769  ekin = 3229.08307056218 | epot = 0 | etot = 3229.08307056218
9770  ekin = 3229.08307056218 | epot = 0 | etot = 3229.08307056218
9771  ekin = 3229.08307056218 | epot = 0 | etot = 3229.08307056218
9772  ekin = 3229.08307056218 | epot = 0 | etot = 3229.08307056218
9773  ekin = 3229.08307056218 | epot = 0 | etot = 3229.08307056218
9774  ekin = 3229.08307056218 | epot = 0 | etot = 3229.08307056218
9775  ekin = 3229.08307056218 | epot = 0 | etot = 3229.08307056218
9776  ekin = 3229.08307056218 | epot = 0 | etot = 3229.08307056218
9777  ekin = 3229.08307056218 | epot = 0 | etot = 3229.08307056218
9778  ekin = 3229.08307056218 | epot = 0 | etot = 3229.08307056218
9779  ekin = 3229.08307056218 | epot = 0 | etot = 3229.08307056218
9780  ekin = 3229.08307056218 | epot = 0 | etot = 3229.08307056218
9781  ekin = 3229.08307056218 | epot = 0 | etot = 3229.08307056218
9782  ekin = 3229.08307056218 | epot = 0 | etot = 3229.08307056218
9783  ekin = 3229.08307056218 | epot = 0 | etot = 3229.08307056218
9784  ekin = 3229.08307056218 | epot = 0 | etot = 3229.08307056218
9785  ekin = 3229.08307056218 | epot = 0 | etot = 3229.08307056218
9786  ekin = 3229.08307056218 | epot = 0 | etot = 3229.08307056218
9787  ekin = 3229.08307056218 | epot = 0 | etot = 3229.08307056218
9788  ekin = 3229.08307056218 | epot = 0 | etot = 3229.08307056218
9789  ekin = 3229.08307056218 | epot = 0 | etot = 3229.08307056218
9790  ekin = 3229.08307056218 | epot = 0 | etot = 3229.08307056218
9791  ekin = 3229.08307056218 | epot = 0 | etot = 3229.08307056218
9792  ekin = 3229.08307056218 | epot = 0 | etot = 3229.08307056218
9793  ekin = 3229.08307056218 | epot = 0 | etot = 3229.08307056218
9794  ekin = 3229.08307056218 | epot = 0 | etot = 3229.08307056218
9795  ekin = 3229.08307056218 | epot = 0 | etot = 3229.08307056218
9796  ekin = 3229.08307056218 | epot = 0 | etot = 3229.08307056218
9797  ekin = 3229.08307056218 | epot = 0 | etot = 3229.08307056218
9798  ekin = 3229.08307056218 | epot = 0 | etot = 3229.08307056218
9799  ekin = 3229.08307056218 | epot = 0 | etot = 3229.08307056218
9800  ekin = 3229.08307056218 | epot = 0 | etot = 3229.08307056218
9801  ekin = 3229.08307056218 | epot = 0 | etot = 3229.08307056218
9802  ekin = 3229.08307056218 | epot = 0 | etot = 3229.08307056218
9803  ekin = 3229.08307056218 | epot = 0 | etot = 3229.08307056218
9804  ekin = 3229.08307056218 | epot = 0 | etot = 3229.08307056218
9805  ekin = 3229.08307056218 | epot = 0 | etot = 3229.08307056218
9806  ekin = 3229.08307056218 | epot = 0 | etot = 3229.08307056218
9807  ekin = 3229.08307056218 | epot = 0 | etot = 3229.08307056218
9808  ekin = 3229.08307056218 | epot = 0 | etot = 3229.08307056218
9809  ekin = 3229.08307056218 | epot = 0 | etot = 3229.08307056218
9810  ekin = 3229.08307056218 | epot = 0 | etot = 3229.08307056218
9811  ekin = 3229.08307056218 | epot = 0 | etot = 3229.08307056218
9812  ekin = 3229.08307056218 | epot = 0 | etot = 3229.08307056218
9813  ekin = 3229.08307056218 | epot = 0 | etot = 3229.08307056218
9814  ekin = 3229.08307056218 | epot = 0 | etot = 3229.08307056218
9815  ekin = 3229.08307056218 | epot = 0 | etot = 3229.08307056218
9816  ekin = 3229.08307056218 | epot = 0 | etot = 3229.08307056218
9817  ekin = 3229.08307056218 | epot = 0 | etot = 3229.08307056218
9818  ekin = 3229.08307056218 | epot = 0 | etot = 3229.08307056218
9819  ekin = 3229.08307056218 | epot = 0 | etot = 3229.08307056218
9820  ekin = 3229.08307056218 | epot = 0 | etot = 3229.08307056218
9821  ekin = 3229.08307056218 | epot = 0 | etot = 3229.08307056218
9822  ekin = 3229.08307056218 | epot = 0 | etot = 3229.08307056218
9823  ekin = 3229.08307056218 | epot = 0 | etot = 3229.08307056218
9824  ekin = 3229.08307056218 | epot = 0 | etot = 3229.08307056218
9825  ekin = 3229.08307056218 | epot = 0 | etot = 3229.08307056218
9826  ekin = 3229.08307056218 | epot = 0 | etot = 3229.08307056218
9827  ekin = 3229.08307056218 | epot = 0 | etot = 3229.08307056218
9828  ekin = 3229.08307056218 | epot = 0 | etot = 3229.08307056218
9829  ekin = 3229.08307056218 | epot = 0 | etot = 3229.08307056218
9830  ekin = 3229.08307056218 | epot = 0 | etot = 3229.08307056218
9831  ekin = 3229.08307056218 | epot = 0 | etot = 3229.08307056218
9832  ekin = 3229.08307056218 | epot = 0 | etot = 3229.08307056218
9833  ekin = 3229.08307056218 | epot = 0 | etot = 3229.08307056218
9834  ekin = 3229.08307056218 | epot = 0 | etot = 3229.08307056218
9835  ekin = 3229.08307056218 | epot = 0 | etot = 3229.08307056218
9836  ekin = 3229.08307056218 | epot = 0 | etot = 3229.08307056218
9837  ekin = 3229.08307056218 | epot = 0 | etot = 3229.08307056218
9838  ekin = 3229.08307056218 | epot = 0 | etot = 3229.08307056218
9839  ekin = 3229.08307056218 | epot = 0 | etot = 3229.08307056218
9840  ekin = 3229.08307056218 | epot = 0 | etot = 3229.08307056218
9841  ekin = 3229.08307056218 | epot = 0 | etot = 3229.08307056218
9842  ekin = 3229.08307056218 | epot = 0 | etot = 3229.08307056218
9843  ekin = 3229.08307056218 | epot = 0 | etot = 3229.08307056218
9844  ekin = 3229.08307056218 | epot = 0 | etot = 3229.08307056218
9845  ekin = 3229.08307056218 | epot = 0 | etot = 3229.08307056218
9846  ekin = 3229.08307056218 | epot = 0 | etot = 3229.08307056218
9847  ekin = 3229.08307056218 | epot = 0 | etot = 3229.08307056218
9848  ekin = 3229.08307056218 | epot = 0 | etot = 3229.08307056218
9849  ekin = 3229.08307056218 | epot = 0 | etot = 3229.08307056218
9850  ekin = 3229.08307056218 | epot = 0 | etot = 3229.08307056218
9851  ekin = 3229.08307056218 | epot = 0 | etot = 3229.08307056218
9852  ekin = 3229.08307056218 | epot = 0 | etot = 3229.08307056218
9853  ekin = 3229.08307056218 | epot = 0 | etot = 3229.08307056218
9854  ekin = 3229.08307056218 | epot = 0 | etot = 3229.08307056218
9855  ekin = 3229.08307056218 | epot = 0 | etot = 3229.08307056218
9856  ekin = 3229.08307056218 | epot = 0 | etot = 3229.08307056218
9857  ekin = 3229.08307056218 | epot = 0 | etot = 3229.08307056218
9858  ekin = 3229.08307056218 | epot = 0 | etot = 3229.08307056218
9859  ekin = 3229.08307056218 | epot = 0 | etot = 3229.08307056218
9860  ekin = 3229.08307056218 | epot = 0 | etot = 3229.08307056218
9861  ekin = 3229.08307056218 | epot = 0 | etot = 3229.08307056218
9862  ekin = 3229.08307056218 | epot = 0 | etot = 3229.08307056218
9863  ekin = 3229.08307056218 | epot = 0 | etot = 3229.08307056218
9864  ekin = 3229.08307056218 | epot = 0 | etot = 3229.08307056218
9865  ekin = 3229.08307056218 | epot = 0 | etot = 3229.08307056218
9866  ekin = 3229.08307056218 | epot = 0 | etot = 3229.08307056218
9867  ekin = 3229.08307056218 | epot = 0 | etot = 3229.08307056218
9868  ekin = 3229.08307056218 | epot = 0 | etot = 3229.08307056218
9869  ekin = 3229.08307056218 | epot = 0 | etot = 3229.08307056218
9870  ekin = 3229.08307056218 | epot = 0 | etot = 3229.08307056218
9871  ekin = 3229.08307056218 | epot = 0 | etot = 3229.08307056218
9872  ekin = 3229.08307056218 | epot = 0 | etot = 3229.08307056218
9873  ekin = 3229.08307056218 | epot = 0 | etot = 3229.08307056218
9874  ekin = 3229.08307056218 | epot = 0 | etot = 3229.08307056218
9875  ekin = 3229.08307056218 | epot = 0 | etot = 3229.08307056218
9876  ekin = 3229.08307056218 | epot = 0 | etot = 3229.08307056218
9877  ekin = 3229.08307056218 | epot = 0 | etot = 3229.08307056218
9878  ekin = 3229.08307056218 | epot = 0 | etot = 3229.08307056218
9879  ekin = 3229.08307056218 | epot = 0 | etot = 3229.08307056218
9880  ekin = 3229.08307056218 | epot = 0 | etot = 3229.08307056218
9881  ekin = 3229.08307056218 | epot = 0 | etot = 3229.08307056218
9882  ekin = 3229.08307056218 | epot = 0 | etot = 3229.08307056218
9883  ekin = 3229.08307056218 | epot = 0 | etot = 3229.08307056218
9884  ekin = 3229.08307056218 | epot = 0 | etot = 3229.08307056218
9885  ekin = 3229.08307056218 | epot = 0 | etot = 3229.08307056218
9886  ekin = 3229.08307056218 | epot = 0 | etot = 3229.08307056218
9887  ekin = 3229.08307056218 | epot = 0 | etot = 3229.08307056218
9888  ekin = 3229.08307056218 | epot = 0 | etot = 3229.08307056218
9889  ekin = 3229.08307056218 | epot = 0 | etot = 3229.08307056218
9890  ekin = 3229.08307056218 | epot = 0 | etot = 3229.08307056218
9891  ekin = 3229.08307056218 | epot = 0 | etot = 3229.08307056218
9892  ekin = 3229.08307056218 | epot = 0 | etot = 3229.08307056218
9893  ekin = 3229.08307056218 | epot = 0 | etot = 3229.08307056218
9894  ekin = 3229.08307056218 | epot = 0 | etot = 3229.08307056218
9895  ekin = 3229.08307056218 | epot = 0 | etot = 3229.08307056218
9896  ekin = 3229.08307056218 | epot = 0 | etot = 3229.08307056218
9897  ekin = 3229.08307056218 | epot = 0 | etot = 3229.08307056218
9898  ekin = 3229.08307056218 | epot = 0 | etot = 3229.08307056218
9899  ekin = 3229.08307056218 | epot = 0 | etot = 3229.08307056218
9900  ekin = 3229.08307056218 | epot = 0 | etot = 3229.08307056218
9901  ekin = 3229.08307056218 | epot = 0 | etot = 3229.08307056218
9902  ekin = 3229.08307056218 | epot = 0 | etot = 3229.08307056218
9903  ekin = 3229.08307056218 | epot = 0 | etot = 3229.08307056218
9904  ekin = 3229.08307056218 | epot = 0 | etot = 3229.08307056218
9905  ekin = 3229.08307056218 | epot = 0 | etot = 3229.08307056218
9906  ekin = 3229.08307056218 | epot = 0 | etot = 3229.08307056218
9907  ekin = 3229.08307056218 | epot = 0 | etot = 3229.08307056218
9908  ekin = 3229.08307056218 | epot = 0 | etot = 3229.08307056218
9909  ekin = 3229.08307056218 | epot = 0 | etot = 3229.08307056218
9910  ekin = 3229.08307056218 | epot = 0 | etot = 3229.08307056218
9911  ekin = 3229.08307056218 | epot = 0 | etot = 3229.08307056218
9912  ekin = 3229.08307056218 | epot = 0 | etot = 3229.08307056218
9913  ekin = 3229.08307056218 | epot = 0 | etot = 3229.08307056218
9914  ekin = 3229.08307056218 | epot = 0 | etot = 3229.08307056218
9915  ekin = 3229.08307056218 | epot = 0 | etot = 3229.08307056218
9916  ekin = 3229.08307056218 | epot = 0 | etot = 3229.08307056218
9917  ekin = 3229.08307056218 | epot = 0 | etot = 3229.08307056218
9918  ekin = 3229.08307056218 | epot = 0 | etot = 3229.08307056218
9919  ekin = 3229.08307056218 | epot = 0 | etot = 3229.08307056218
9920  ekin = 3229.08307056218 | epot = 0 | etot = 3229.08307056218
9921  ekin = 3229.08307056218 | epot = 0 | etot = 3229.08307056218
9922  ekin = 3229.08307056218 | epot = 0 | etot = 3229.08307056218
9923  ekin = 3229.08307056218 | epot = 0 | etot = 3229.08307056218
9924  ekin = 3229.08307056218 | epot = 0 | etot = 3229.08307056218
9925  ekin = 3229.08307056218 | epot = 0 | etot = 3229.08307056218
9926  ekin = 3229.08307056218 | epot = 0 | etot = 3229.08307056218
9927  ekin = 3229.08307056218 | epot = 0 | etot = 3229.08307056218
9928  ekin = 3229.08307056218 | epot = 0 | etot = 3229.08307056218
9929  ekin = 3229.08307056218 | epot = 0 | etot = 3229.08307056218
9930  ekin = 3229.08307056218 | epot = 0 | etot = 3229.08307056218
9931  ekin = 3229.08307056218 | epot = 0 | etot = 3229.08307056218
9932  ekin = 3229.08307056218 | epot = 0 | etot = 3229.08307056218
9933  ekin = 3229.08307056218 | epot = 0 | etot = 3229.08307056218
9934  ekin = 3229.08307056218 | epot = 0 | etot = 3229.08307056218
9935  ekin = 3229.08307056218 | epot = 0 | etot = 3229.08307056218
9936  ekin = 3229.08307056218 | epot = 0 | etot = 3229.08307056218
9937  ekin = 3229.08307056218 | epot = 0 | etot = 3229.08307056218
9938  ekin = 3229.08307056218 | epot = 0 | etot = 3229.08307056218
9939  ekin = 3229.08307056218 | epot = 0 | etot = 3229.08307056218
9940  ekin = 3229.08307056218 | epot = 0 | etot = 3229.08307056218
9941  ekin = 3229.08307056218 | epot = 0 | etot = 3229.08307056218
9942  ekin = 3229.08307056218 | epot = 0 | etot = 3229.08307056218
9943  ekin = 3229.08307056218 | epot = 0 | etot = 3229.08307056218
9944  ekin = 3229.08307056218 | epot = 0 | etot = 3229.08307056218
9945  ekin = 3229.08307056218 | epot = 0 | etot = 3229.08307056218
9946  ekin = 3229.08307056218 | epot = 0 | etot = 3229.08307056218
9947  ekin = 3229.08307056218 | epot = 0 | etot = 3229.08307056218
9948  ekin = 3229.08307056218 | epot = 0 | etot = 3229.08307056218
9949  ekin = 3229.08307056218 | epot = 0 | etot = 3229.08307056218
9950  ekin = 3229.08307056218 | epot = 0 | etot = 3229.08307056218
9951  ekin = 3229.08307056218 | epot = 0 | etot = 3229.08307056218
9952  ekin = 3229.08307056218 | epot = 0 | etot = 3229.08307056218
9953  ekin = 3229.08307056218 | epot = 0 | etot = 3229.08307056218
9954  ekin = 3229.08307056218 | epot = 0 | etot = 3229.08307056218
9955  ekin = 3229.08307056218 | epot = 0 | etot = 3229.08307056218
9956  ekin = 3229.08307056218 | epot = 0 | etot = 3229.08307056218
9957  ekin = 3229.08307056218 | epot = 0 | etot = 3229.08307056218
9958  ekin = 3229.08307056218 | epot = 0 | etot = 3229.08307056218
9959  ekin = 3229.08307056218 | epot = 0 | etot = 3229.08307056218
9960  ekin = 3229.08307056218 | epot = 0 | etot = 3229.08307056218
9961  ekin = 3229.08307056218 | epot = 0 | etot = 3229.08307056218
9962  ekin = 3229.08307056218 | epot = 0 | etot = 3229.08307056218
9963  ekin = 3229.08307056218 | epot = 0 | etot = 3229.08307056218
9964  ekin = 3229.08307056218 | epot = 0 | etot = 3229.08307056218
9965  ekin = 3229.08307056218 | epot = 0 | etot = 3229.08307056218
9966  ekin = 3229.08307056218 | epot = 0 | etot = 3229.08307056218
9967  ekin = 3229.08307056218 | epot = 0 | etot = 3229.08307056218
9968  ekin = 3229.08307056218 | epot = 0 | etot = 3229.08307056218
9969  ekin = 3229.08307056218 | epot = 0 | etot = 3229.08307056218
9970  ekin = 3229.08307056218 | epot = 0 | etot = 3229.08307056218
9971  ekin = 3229.08307056218 | epot = 0 | etot = 3229.08307056218
9972  ekin = 3229.08307056218 | epot = 0 | etot = 3229.08307056218
9973  ekin = 3229.08307056218 | epot = 0 | etot = 3229.08307056218
9974  ekin = 3229.08307056218 | epot = 0 | etot = 3229.08307056218
9975  ekin = 3229.08307056218 | epot = 0 | etot = 3229.08307056218
9976  ekin = 3229.08307056218 | epot = 0 | etot = 3229.08307056218
9977  ekin = 3229.08307056218 | epot = 0 | etot = 3229.08307056218
9978  ekin = 3229.08307056218 | epot = 0 | etot = 3229.08307056218
9979  ekin = 3229.08307056218 | epot = 0 | etot = 3229.08307056218
9980  ekin = 3229.08307056218 | epot = 0 | etot = 3229.08307056218
9981  ekin = 3229.08307056218 | epot = 0 | etot = 3229.08307056218
9982  ekin = 3229.08307056218 | epot = 0 | etot = 3229.08307056218
9983  ekin = 3229.08307056218 | epot = 0 | etot = 3229.08307056218
9984  ekin = 3229.08307056218 | epot = 0 | etot = 3229.08307056218
9985  ekin = 3229.08307056218 | epot = 0 | etot = 3229.08307056218
9986  ekin = 3229.08307056218 | epot = 0 | etot = 3229.08307056218
9987  ekin = 3229.08307056218 | epot = 0 | etot = 3229.08307056218
9988  ekin = 3229.08307056218 | epot = 0 | etot = 3229.08307056218
9989  ekin = 3229.08307056218 | epot = 0 | etot = 3229.08307056218
9990  ekin = 3229.08307056218 | epot = 0 | etot = 3229.08307056218
9991  ekin = 3229.08307056218 | epot = 0 | etot = 3229.08307056218
9992  ekin = 3229.08307056218 | epot = 0 | etot = 3229.08307056218
9993  ekin = 3229.08307056218 | epot = 0 | etot = 3229.08307056218
9994  ekin = 3229.08307056218 | epot = 0 | etot = 3229.08307056218
9995  ekin = 3229.08307056218 | epot = 0 | etot = 3229.08307056218
9996  ekin = 3229.08307056218 | epot = 0 | etot = 3229.08307056218
9997  ekin = 3229.08307056218 | epot = 0 | etot = 3229.08307056218
9998  ekin = 3229.08307056218 | epot = 0 | etot = 3229.08307056218
9999  ekin = 3229.08307056218 | epot = 0 | etot = 3229.08307056218
10000  ekin = 3229.08307056218 | epot = 0 | etot = 3229.08307056218
ERROR: Lost atoms: original 4 current 2 (../thermo.cpp:494)
Last command: run 10000
