LAMMPS data file via write_data, version 10 Sep 2025, timestep = 100000, units = lj

9261 atoms
1 atom types
9261 ellipsoids

0 23.113490742262385 xlo xhi
0 23.113490742262385 ylo yhi
0 23.113490742262385 zlo zhi

Atoms # ellipsoid/kk

10 1 1 5.968310365946075 2.174954285197469 0.5314115920855811 0.16988009910024054 0 0 0
15 1 1 5.968310365946075 3.290416907548324 0.23659839399995367 0.03457521183476038 0 0 0
21 1 1 5.968310365946075 6.081168880562538 0.636850093055358 0.650866702366915 0 0 0
29 1 1 5.968310365946075 7.497342708223187 0.32287870373811073 0.622305066116247 0 0 0
36 1 1 5.968310365946075 8.900488997780078 0.6273610672943134 0.7082237613234834 0 0 0
42 1 1 5.968310365946075 11.35282327388624 0.04263509133691351 0.6626156474125329 0 0 0
7 1 1 5.968310365946075 0.046524563277239 0.7894089930218801 0.4075956285826523 0 0 0
8411 1 1 5.968310365946075 6.807146576899479 1.2056615209598094 0.1379903070409569 0 0 1
25 1 1 5.968310365946075 7.93046609269502 1.4731142303315006 0.7083822268056906 0 0 0
12 1 1 5.968310365946075 1.8275555092170415 1.6797892964995504 0.674576663275335 0 0 0
19 1 1 5.968310365946075 4.286043452290489 1.6598527920581339 0.4999266008078594 0 0 0
23 1 1 5.968310365946075 5.677526806729075 1.6772733892436533 0.4186569475711019 0 0 0
89 1 1 5.968310365946075 0.7928147102880085 2.2509644724681768 0.08316630995940931 0 0 0
93 1 1 5.968310365946075 1.7899334279756165 2.7451851989806038 0.18246542587288875 0 0 0
8475 1 1 5.968310365946075 2.7593830788810254 2.187271841663455 0.02216218575642802 0 0 1
101 1 1 5.968310365946075 3.8197914319511606 2.8736752670556185 0.5974708441387624 0 0 0
8481 1 1 5.968310365946075 5.096891183291625 2.629991155816063 0.5297569084770144 0 0 1
31 1 1 5.968310365946075 7.3284131394681555 2.1929883134842862 0.14276588945311328 0 0 0
121 1 1 5.968310365946075 9.646717647396446 2.17965728128798 0.2227835233574187 0 0 0
127 1 1 5.968310365946075 10.869286935659556 2.3210899921285266 0.5497209858895973 0 0 0
95 1 1 5.968310365946075 2.8621953790913484 3.3931668262869623 0.6357849575597894 0 0 0
99 1 1 5.968310365946075 4.47593060875799 3.4676629547793967 0.02609858721321612 0 0 0
107 1 1 5.968310365946075 5.841855190360248 3.5320667565607473 0.3688755829772801 0 0 0
109 1 1 5.968310365946075 6.964114470826018 3.2695688396669538 0.102961834407963 0 0 0
119 1 1 5.968310365946075 10.102516776953307 3.2289377770782033 0.5208031156593738 0 0 0
123 1 1 5.968310365946075 11.374516893929734 3.3298774731459924 0.12818965960521966 0 0 0
174 1 1 5.968310365946075 1.2747417546189095 3.7959067139547398 0.16196584795000898 0 0 0
117 1 1 5.968310365946075 9.05887415789132 3.6238204935068508 0.39594181863893113 0 0 0
171 1 1 5.968310365946075 0.6995930630251643 4.651822241460033 0.13780307991653185 0 0 0
8565 1 1 5.968310365946075 4.5045663247646655 4.6179206009665315 0.08867948643507943 0 0 1
8577 1 1 5.968310365946075 7.9026986470392115 4.429861626672229 0.04105400758112158 0 0 1
8581 1 1 5.968310365946075 9.476231162715935 4.776256094663927 0.48159346204033965 0 0 1
185 1 1 5.968310365946075 3.5844191310854523 5.219786201299942 0.21920927060804865 0 0 0
192 1 1 5.968310365946075 5.081845773005607 5.484497780141489 0.7187222952860228 0 0 0
191 1 1 5.968310365946075 6.188014946160672 5.663615162488602 0.5405982158806211 0 0 0
199 1 1 5.968310365946075 7.409660420335964 5.531973591132015 0.26748337006946 0 0 0
198 1 1 5.968310365946075 8.570629202524815 5.373062046691097 0.4710533481838468 0 0 0
207 1 1 5.968310365946075 10.578705581223437 5.323930896688276 0.4890553170542697 0 0 0
176 1 1 5.968310365946075 0.29369754104901225 5.727170914233391 0.09883015394907557 0 0 0
183 1 1 5.968310365946075 2.689037149867492 5.847848906615239 0.32759778389125177 0 0 0
269 1 1 5.968310365946075 3.9201833508150377 6.389897664457683 0.43043830106724734 0 0 0
8661 1 1 5.968310365946075 8.516019591345923 6.376965038498211 0.009163955351499546 0 0 1
8583 1 1 5.968310365946075 9.526663255440749 5.89725217406632 0.20757761568465302 0 0 1
257 1 1 5.968310365946075 0.7754056455635774 7.101004538100859 0.6191560024342607 0 0 0
180 1 1 5.968310365946075 1.8864840621998407 6.661651644783553 0.7144185039634622 0 0 0
919 1 1 5.968310365946075 10.74029118762294 0.01733235218901653 2.7002788875763564 0 0 0
8671 1 1 5.968310365946075 9.369637159378524 7.038831895357721 0.0780613772353047 0 0 1
293 1 1 5.968310365946075 10.908578907495928 6.707912925753186 0.21956715415114497 0 0 0
262 1 1 5.968310365946075 2.44561496753036 7.68437257475533 0.6458316281999376 0 0 0
267 1 1 5.968310365946075 3.7596954549505797 7.712286336943765 0.4943450165851425 0 0 0
279 1 1 5.968310365946075 5.869215917413005 7.882181916903948 0.0829769070503346 0 0 0
283 1 1 5.968310365946075 6.878802544823029 7.881511680664407 0.42012493223558467 0 0 0
295 1 1 5.968310365946075 10.54561390046808 7.73367891191662 0.5641773582208008 0 0 0
8717 1 1 5.968310365946075 0.40386452933874506 8.108418250386283 0.16715039762251158 0 0 1
356 1 1 5.968310365946075 3.0224646024381334 8.612971833469405 0.5111292234618996 0 0 0
368 1 1 5.968310365946075 5.077681859296534 8.520091574771 0.6052492178243668 0 0 0
337 1 1 5.968310365946075 0.9435122486295752 9.212859277669827 0.3894539467461135 0 0 0
385 1 1 5.968310365946075 8.714994287994315 9.072574546747262 0.3486206654522226 0 0 0
351 1 1 5.968310365946075 1.4886179622864875 10.121303406623074 0.009897942990770105 0 0 0
355 1 1 5.968310365946075 3.5262622347241557 9.590891984417466 0.1293983492516931 0 0 0
367 1 1 5.968310365946075 5.604054369433613 9.440414278727149 0.06265176571220415 0 0 0
1249 1 1 5.968310365946075 6.696387979444522 9.715420456000695 0.12141761556460125 0 0 0
382 1 1 5.968310365946075 7.6795569257408784 9.769429035320895 0.6306842136336714 0 0 0
393 1 1 5.968310365946075 9.951655651547751 9.61715225558071 0.5474367752147968 0 0 0
406 1 1 5.968310365946075 10.95336001251196 10.045163966198293 0.6759706712751824 0 0 0
360 1 1 5.968310365946075 3.6573823265683396 10.766304661417859 0.2902061241478767 0 0 0
377 1 1 5.968310365946075 6.717177983526139 10.804081394842244 0.2647526856066385 0 0 0
468 1 1 5.968310365946075 0.9367639181045209 11.137296607723181 0.19344868318868136 0 0 0
354 1 1 5.968310365946075 1.9829848337325209 11.160117398355744 0.5425129315018462 0 0 0
365 1 1 5.968310365946075 4.814523293138582 11.06000136785407 0.6349133864449119 0 0 0
388 1 1 5.968310365946075 7.824213179221232 10.842318507988942 0.6350355476455437 0 0 0
495 1 1 5.968310365946075 8.860369952729943 11.391254241466958 0.22605157339611545 0 0 0
394 1 1 5.968310365946075 10.26153096007925 10.976429030034364 0.6353578345139749 0 0 0
396 1 1 5.968310365946075 11.25704818211176 11.285559208109595 0.28897645913571884 0 0 0
16 1 1 5.968310365946075 3.9062885256124034 0.7612810530279328 0.9903672696486111 0 0 0
26 1 1 5.968310365946075 6.753149269628227 0.15904632354147907 1.4292859405099496 0 0 0
38 1 1 5.968310365946075 10.2382656461452 0.24751787069403128 0.8160280724456918 0 0 0
887 1 1 5.968310365946075 1.1292832209575083 0.6899266360178403 1.0143767206084624 0 0 0
897 1 1 5.968310365946075 2.157427302865797 0.8001656544358626 1.3485877328627944 0 0 0
97 1 1 5.968310365946075 3.051304535832009 1.4104931644140837 0.7869533240970557 0 0 0
22 1 1 5.968310365946075 5.023105599346304 0.7999751379813547 0.9481182533411796 0 0 0
27 1 1 5.968310365946075 6.969225967687411 1.3524219437640697 1.3212771076263792 0 0 0
40 1 1 5.968310365946075 9.77923990020733 1.245935283193017 1.0306981325546893 0 0 0
48 1 1 5.968310365946075 11.245930444696432 1.3368786136481028 0.8951040369589396 0 0 0
8 1 1 5.968310365946075 0.8757214551634495 1.8193760510562076 1.2999573988697795 0 0 0
105 1 1 5.968310365946075 5.118909104719838 1.8289151818260425 1.4637478690982177 0 0 0
118 1 1 5.968310365946075 8.828236905005536 1.929754292865817 1.1891915243311284 0 0 0
90 1 1 5.968310365946075 0.9318831767540239 2.886188682503924 0.9563823820177906 0 0 0
100 1 1 5.968310365946075 2.515920221406068 2.389207337414881 1.16021814180776 0 0 0
103 1 1 5.968310365946075 5.982762038206035 2.8008247972798697 1.2980369294011898 0 0 0
110 1 1 5.968310365946075 6.9620542707237965 2.5193611361330697 1.4247115233802545 0 0 0
113 1 1 5.968310365946075 7.932971797280645 2.6329223488702374 0.9485460169177048 0 0 0
122 1 1 5.968310365946075 10.036452253243182 2.3087924109466837 1.2858059393266932 0 0 0
94 1 1 5.968310365946075 1.9008638170240406 3.36653999026767 1.135977841508901 0 0 0
120 1 1 5.968310365946075 8.807692037104891 3.0260093791158713 1.4488961040521502 0 0 0
973 1 1 5.968310365946075 0.4932258259287022 3.913726300950951 1.0593982244648439 0 0 0
186 1 1 5.968310365946075 3.8795202821708186 3.9510255149641473 0.9326606892546011 0 0 0
189 1 1 5.968310365946075 4.926317170438842 4.237634095264894 1.0302940874657767 0 0 0
111 1 1 5.968310365946075 6.9035953251749715 3.7329328802322133 1.1465815376380744 0 0 0
115 1 1 5.968310365946075 8.101130906676909 3.8410731222991488 0.9339368539610887 0 0 0
201 1 1 5.968310365946075 9.727607577579626 4.022644107981032 1.4002876562648872 0 0 0
205 1 1 5.968310365946075 10.792595504141719 4.079653440714882 0.7268980841943343 0 0 0
96 1 1 5.968310365946075 1.5787298850743396 4.429105146666683 1.0568246576624447 0 0 0
182 1 1 5.968310365946075 2.6708724432060715 4.781943863379009 0.6931767368336026 0 0 0
194 1 1 5.968310365946075 6.088174013457163 4.571538796565335 0.9518707909926721 0 0 0
195 1 1 5.968310365946075 7.381856526071136 4.7537366643761665 1.0903421476680193 0 0 0
211 1 1 5.968310365946075 11.391750592030807 4.995128787419937 1.2088423022341026 0 0 0
1059 1 1 5.968310365946075 0.32129196352375283 5.183535617662344 1.2303394685028541 0 0 0
178 1 1 5.968310365946075 1.30579900942579 5.559707595778896 0.8609548983365884 0 0 0
188 1 1 5.968310365946075 4.105048790797719 5.163065096550926 1.1903302537581664 0 0 0
1077 1 1 5.968310365946075 7.940799113892997 5.569353515805617 1.413749169633224 0 0 0
203 1 1 5.968310365946075 9.923626821566456 5.607720300685419 1.3430281616823772 0 0 0
172 1 1 5.968310365946075 0.17967083556294156 6.279555796119211 1.1769468591084467 0 0 0
270 1 1 5.968310365946075 4.573744433301465 6.203554769264909 1.3974729533155184 0 0 0
1159 1 1 5.968310365946075 7.120701868639092 6.3575528353531805 0.9494264810840262 0 0 0
286 1 1 5.968310365946075 8.928870914911831 6.258409733037199 1.140791997668264 0 0 0
294 1 1 5.968310365946075 11.402705327157499 6.146265861413135 1.3091433052473205 0 0 0
266 1 1 5.968310365946075 3.057638841656789 6.782475993722957 1.0641113357807614 0 0 0
277 1 1 5.968310365946075 6.075469167699965 6.965789951359997 0.780814350977763 0 0 0
285 1 1 5.968310365946075 7.929251691972431 7.099201943976531 0.7210702961346961 0 0 0
289 1 1 5.968310365946075 9.989503130615647 6.800512969844871 1.0079839564813216 0 0 0
272 1 1 5.968310365946075 4.795169705918969 7.390952352875359 0.8244991790974362 0 0 0
288 1 1 5.968310365946075 9.028543418160309 7.453697986174365 1.056467763770569 0 0 0
259 1 1 5.968310365946075 1.4062979267159872 8.011393513406032 0.9400452906286226 0 0 0
278 1 1 5.968310365946075 6.0481138650672 8.029713294656643 1.2902392173863086 0 0 0
284 1 1 5.968310365946075 8.118750658489386 8.230304742148983 0.9607503084637468 0 0 0
397 1 1 5.968310365946075 9.91622710669772 8.068123602107686 1.3479096623656959 0 0 0
256 1 1 5.968310365946075 0.3875967668740465 8.769938571411352 1.253677928580538 0 0 0
264 1 1 5.968310365946075 2.0378789036447746 9.074802387779046 0.8561315191549729 0 0 0
362 1 1 5.968310365946075 4.057887100050732 8.82765619899621 0.9740125801608126 0 0 0
280 1 1 5.968310365946075 5.845778760370202 9.09922261537264 1.2608943057762791 0 0 0
374 1 1 5.968310365946075 6.995056739198803 8.81091844262543 1.0341338569010674 0 0 0
404 1 1 5.968310365946075 10.729101843717627 8.839840806867958 0.9082613726482947 0 0 0
338 1 1 5.968310365946075 0.24211032923729348 9.984845253583144 0.85543917424148 0 0 0
358 1 1 5.968310365946075 2.6103300623751036 10.087873219666829 0.8191964497403756 0 0 0
1241 1 1 5.968310365946075 3.332899118764188 9.480595448196366 1.4059202989382484 0 0 0
363 1 1 5.968310365946075 4.227153370255168 9.917377610303763 1.0499273890989875 0 0 0
371 1 1 5.968310365946075 5.363765839719644 10.146976210813982 0.9600360213861666 0 0 0
376 1 1 5.968310365946075 6.5585602624242485 9.958890850590821 1.1751572653030962 0 0 0
380 1 1 5.968310365946075 8.639721267556506 9.849718330166745 1.4447248464270503 0 0 0
346 1 1 5.968310365946075 1.5738626898197663 10.420483853281226 1.325749190287455 0 0 0
392 1 1 5.968310365946075 9.306137854673272 10.601215906449939 1.092042622602766 0 0 0
342 1 1 5.968310365946075 0.020462047785263116 11.083605661993976 0.8112294388084801 0 0 0
478 1 1 5.968310365946075 2.9696095033921655 11.336455510200995 1.0944783159611533 0 0 0
476 1 1 5.968310365946075 3.9906519654239934 11.03166195259484 1.531675879872816 0 0 0
1259 1 1 5.968310365946075 5.875520024745999 11.368083606329053 0.8911413184921673 0 0 0
402 1 1 5.968310365946075 11.506264554888542 11.156054228092152 1.3441020841494524 0 0 0
2 1 1 5.968310365946075 0.40480329102291485 0.34238985280234263 1.7540888464215922 0 0 0
921 1 1 5.968310365946075 9.989590842625692 0.49537761149334875 2.0393729534968816 0 0 0
901 1 1 5.968310365946075 3.2892085593153055 0.8756468433567404 1.889834055699933 0 0 0
20 1 1 5.968310365946075 4.547023725557088 0.8475679421789138 1.979308007826919 0 0 0
24 1 1 5.968310365946075 6.017400561941015 0.8280226790678806 1.7932272837022585 0 0 0
30 1 1 5.968310365946075 7.875247549116968 0.9105317104334395 1.6782585120785765 0 0 0
917 1 1 5.968310365946075 8.915177693500869 1.0564566157620747 1.854217699874453 0 0 0
44 1 1 5.968310365946075 11.027430289007265 0.7582478635158745 1.7830869652785062 0 0 0
967 1 1 5.968310365946075 0.23062244589430173 1.449509383702916 2.141816356352577 0 0 0
979 1 1 5.968310365946075 2.9130381341179823 2.06516741489104 2.167667573281307 0 0 0
98 1 1 5.968310365946075 3.884872874419738 1.8690305174164255 1.663716342985024 0 0 0
106 1 1 5.968310365946075 6.105359296847651 1.9367942109080567 1.9871577736921875 0 0 0
995 1 1 5.968310365946075 7.969736125668797 2.016086147741036 1.861189469121166 0 0 0
975 1 1 5.968310365946075 1.7830867901136813 2.2212817479897016 2.0794848183124204 0 0 0
108 1 1 5.968310365946075 4.570853358073112 2.8984423624603455 1.5001368551109355 0 0 0
132 1 1 5.968310365946075 11.239905001017915 2.4531215842774965 1.6331488371806293 0 0 0
978 1 1 5.968310365946075 1.3146325875213094 3.3857353965967656 2.058188970264399 0 0 0
104 1 1 5.968310365946075 3.469187261438521 2.989064909055977 1.64831245845029 0 0 0
114 1 1 5.968310365946075 7.603276270019491 3.333315735341454 1.8863153378612978 0 0 0
209 1 1 5.968310365946075 10.585867185623448 3.3772842716309617 1.607951102969315 0 0 0
1063 1 1 5.968310365946075 2.7105359859802234 4.090262169823404 1.517121758963418 0 0 0
1069 1 1 5.968310365946075 4.395246073552379 4.018558156384287 1.973257688410598 0 0 0
112 1 1 5.968310365946075 5.66190348373553 3.799634534295352 1.6874872519574755 0 0 0
116 1 1 5.968310365946075 8.662040681432979 4.03114087839079 1.918449489198761 0 0 0
1056 1 1 5.968310365946075 0.9587346106236406 4.646118147648524 1.9523810963351118 0 0 0
190 1 1 5.968310365946075 6.45908318282148 4.4693340191407085 2.031161391635935 0 0 0
206 1 1 5.968310365946075 10.7298650474102 4.9395469359314905 2.171673710166353 0 0 0
977 1 1 5.968310365946075 1.885527693605451 5.305292766867449 1.8957141652787026 0 0 0
184 1 1 5.968310365946075 2.991481074462707 5.530734890543563 1.5829264685382505 0 0 0
1073 1 1 5.968310365946075 5.431878903380334 5.1974566675783915 1.9873361295406977 0 0 0
196 1 1 5.968310365946075 6.667504422951338 5.465328671028707 1.5839964002151183 0 0 0
1083 1 1 5.968310365946075 8.984805804430888 5.098694789067336 1.439522776186768 0 0 0
1057 1 1 5.968310365946075 0.8276195919171969 5.767622296347089 2.039084979799956 0 0 0
1061 1 1 5.968310365946075 2.266640352802629 6.340372723359952 1.7296780305859845 0 0 0
1147 1 1 5.968310365946075 3.451343618225772 6.373558389947357 2.1358812589043246 0 0 0
274 1 1 5.968310365946075 5.675164119223744 6.1962867211340145 1.5720707776579828 0 0 0
208 1 1 5.968310365946075 10.648480225119904 6.009917352113116 2.1126770859951645 0 0 0
258 1 1 5.968310365946075 1.196090954035076 6.777787025161993 1.5754826924473182 0 0 0
1153 1 1 5.968310365946075 4.036636209161336 7.181068645747866 1.5848798264395971 0 0 0
276 1 1 5.968310365946075 5.202589736053353 7.149443924522108 1.8804026032008547 0 0 0
1163 1 1 5.968310365946075 6.6733892379985145 6.566575640152293 2.046045251526858 0 0 0
282 1 1 5.968310365946075 7.785865239395292 6.910076390683738 1.857140733309159 0 0 0
1167 1 1 5.968310365946075 9.162258369596914 7.109144156329117 2.0736839736656965 0 0 0
254 1 1 5.968310365946075 0.5627995459306301 7.780496686572831 1.6976081694733154 0 0 0
1143 1 1 5.968310365946075 2.252245238176143 7.460360615175667 1.683468429373959 0 0 0
1165 1 1 5.968310365946075 7.107400343001465 7.773170808221959 1.5337098540235985 0 0 0
290 1 1 5.968310365946075 10.293836681708786 7.1895397642703305 2.092379409978861 0 0 0
296 1 1 5.968310365946075 11.137950994333483 7.308811664338243 1.3711040482236327 0 0 0
260 1 1 5.968310365946075 1.940693899354005 8.536176816758823 1.9166323045970806 0 0 0
268 1 1 5.968310365946075 3.0223624434875287 8.248565696081055 1.5478273031678251 0 0 0
1243 1 1 5.968310365946075 5.015132240768381 8.314364657798453 1.6968052193468268 0 0 0
292 1 1 5.968310365946075 10.763286824988556 8.266409826587063 2.0527357254859675 0 0 0
1239 1 1 5.968310365946075 4.297684464989597 9.259720375730833 1.9916827903734897 0 0 0
1255 1 1 5.968310365946075 6.745628708859281 9.045726178929542 2.1537085765129604 0 0 0
1261 1 1 5.968310365946075 7.894864291591271 9.036594200680964 1.679889312807968 0 0 0
386 1 1 5.968310365946075 8.988379010162053 8.758038475162806 1.4362079425625585 0 0 0
398 1 1 5.968310365946075 10.008189671230442 9.17748720928172 1.7194128351548115 0 0 0
344 1 1 5.968310365946075 1.2637456950511519 9.37747250700589 1.5821808861431848 0 0 0
350 1 1 5.968310365946075 2.5490227859759687 9.62489156477736 2.125190791138198 0 0 0
1251 1 1 5.968310365946075 5.245177600126361 9.914360000600867 2.111327962647919 0 0 0
1279 1 1 5.968310365946075 11.033858056336975 9.530580766381414 2.040746476438656 0 0 0
1221 1 1 5.968310365946075 0.5405669377821708 10.74520423045395 1.770098201638717 0 0 0
352 1 1 5.968310365946075 3.069247381459023 10.563875713493088 1.8975578801339643 0 0 0
1257 1 1 5.968310365946075 7.562525953418245 10.16773798380349 1.680060102072703 0 0 0
400 1 1 5.968310365946075 10.147699481614424 10.284304895447216 1.6988685397659269 0 0 0
472 1 1 5.968310365946075 2.1058526226493526 11.258878143650142 1.8117360067624115 0 0 0
366 1 1 5.968310365946075 5.083158751186307 11.068121564323874 1.7747728888430656 0 0 0
378 1 1 5.968310365946075 7.102229336972594 11.241662370335684 1.4639570526049204 0 0 0
1263 1 1 5.968310365946075 8.210801224873386 11.109880862235627 1.7447771394897869 0 0 0
1277 1 1 5.968310365946075 10.435007371049277 11.430061721920426 1.6363573160731022 0 0 0
891 1 1 5.968310365946075 2.533017936117846 0.10759025358244642 2.1472748055239066 0 0 0
905 1 1 5.968310365946075 5.394024143840634 0.4786430849924317 2.6418349106710206 0 0 0
911 1 1 5.968310365946075 7.317040680226631 0.25133431825380875 2.4380943007749036 0 0 0
914 1 1 5.968310365946075 8.639144350411796 0.3821121456047392 2.886557291476307 0 0 0
889 1 1 5.968310365946075 1.6178061070507386 1.14242940531396 2.292634345926717 0 0 0
893 1 1 5.968310365946075 2.7584097722763925 1.0858671200555146 2.776531452834128 0 0 0
987 1 1 5.968310365946075 4.888268484145369 1.7434781017640255 2.592180518691239 0 0 0
28 1 1 5.968310365946075 7.255927835585605 1.4098655518197623 2.4436592643498023 0 0 0
1000 1 1 5.968310365946075 8.43640672529491 1.5374406929227016 2.756116656490372 0 0 0
999 1 1 5.968310365946075 9.327277374344773 2.0888668530265195 2.1910696051017484 0 0 0
1003 1 1 5.968310365946075 10.431317809302525 1.5418645706564844 2.2778789326039357 0 0 0
971 1 1 5.968310365946075 0.7280979661706662 2.432708853329437 2.45994061809188 0 0 0
985 1 1 5.968310365946075 4.3196475293006396 2.8034210392984864 2.6025054745828315 0 0 0
991 1 1 5.968310365946075 7.294525284313469 2.5668800144517934 2.6131904817503675 0 0 0
968 1 1 5.968310365946075 0.40333626575333786 3.6162750822532166 2.7100742167889273 0 0 0
981 1 1 5.968310365946075 2.3789707958101687 3.1430586520805055 2.2045288148258764 0 0 0
1067 1 1 5.968310365946075 3.5719844736231434 3.6098677787243485 2.6478705295361715 0 0 0
102 1 1 5.968310365946075 5.435245659112619 2.8746928087225485 2.398809624779106 0 0 0
997 1 1 5.968310365946075 6.4796911277088185 3.3066298380962778 2.1839012318819897 0 0 0
1001 1 1 5.968310365946075 8.595782591229346 2.9922241049282063 2.746090783079332 0 0 0
124 1 1 5.968310365946075 9.577689555614631 3.251803271239184 2.218752653631978 0 0 0
128 1 1 5.968310365946075 10.990789159124226 2.9393415663115334 2.6103319358688344 0 0 0
1064 1 1 5.968310365946075 2.0111092290739503 4.1900207725891025 2.3867696950102975 0 0 0
210 1 1 5.968310365946075 10.694652254944138 4.015041201983855 2.7463614323552736 0 0 0
1065 1 1 5.968310365946075 3.099116835529592 4.729473442362595 2.394333401552025 0 0 0
1074 1 1 5.968310365946075 5.592587568524234 4.510605568465325 2.8139967385521367 0 0 0
1081 1 1 5.968310365946075 7.63290701931063 4.546192198294894 2.1898705725794314 0 0 0
202 1 1 5.968310365946075 9.710658089892975 4.6286507095724065 2.4478747802540766 0 0 0
1151 1 1 5.968310365946075 4.339600439013138 5.178056648290277 2.320205986773578 0 0 0
1156 1 1 5.968310365946075 6.1193513767321495 5.778548897294374 2.5951888260498897 0 0 0
1075 1 1 5.968310365946075 7.458942600898545 5.707542487012504 2.3928882908424205 0 0 0
1085 1 1 5.968310365946075 8.621448604871642 5.171177836711694 2.5529188514070125 0 0 0
391 1 1 5.968310365946075 9.99364207218648 8.658398377651338 0.07121322131603297 0 0 0
1062 1 1 5.968310365946075 2.560508663038748 5.739571661877469 2.72513605250865 0 0 0
1155 1 1 5.968310365946075 4.962816367683268 6.210409384239307 2.4207935706272328 0 0 0
200 1 1 5.968310365946075 8.381224893422727 6.32712497918296 2.7517086034081584 0 0 0
204 1 1 5.968310365946075 9.38987104988828 5.988506930242957 2.2352735501973195 0 0 0
1144 1 1 5.968310365946075 2.2413029807921476 6.920626026954817 2.638248194396095 0 0 0
1154 1 1 5.968310365946075 4.275648254770219 7.052274004068479 2.7259523215686983 0 0 0
1175 1 1 5.968310365946075 11.346406329735473 6.79276126226613 2.419253437285921 0 0 0
1137 1 1 5.968310365946075 0.2099611886687763 7.6145498820061865 2.8605469504675756 0 0 0
1146 1 1 5.968310365946075 1.4040702493086712 7.623825654100441 2.4305844864789337 0 0 0
1149 1 1 5.968310365946075 3.163252527097997 7.4532875142490695 2.350899176197022 0 0 0
1157 1 1 5.968310365946075 5.272544673200676 7.687176017942205 2.857655315274933 0 0 0
1161 1 1 5.968310365946075 6.262751809365832 7.602616295764553 2.332459111855349 0 0 0
1169 1 1 5.968310365946075 8.282033249490965 7.925635439413524 2.2120556636011575 0 0 0
1145 1 1 5.968310365946075 2.3752614033982296 8.067796518538715 2.823119732772254 0 0 0
1238 1 1 5.968310365946075 4.162945494716036 8.043786233489119 2.286584063763002 0 0 0
1166 1 1 5.968310365946075 7.215163866142883 8.085648853715378 2.615996072656608 0 0 0
1173 1 1 5.968310365946075 9.411244077389862 8.156757999573387 2.36437797868262 0 0 0
1141 1 1 5.968310365946075 0.8370432522002429 8.626403820012472 2.3235316634668752 0 0 0
1225 1 1 5.968310365946075 1.7028433652280812 9.270377304161252 2.7342978982568447 0 0 0
1237 1 1 5.968310365946075 3.222653667463266 8.77086247004849 2.564904135083634 0 0 0
364 1 1 5.968310365946075 5.626108850426352 8.925506719833463 2.416912528150202 0 0 0
1262 1 1 5.968310365946075 7.935690710100424 9.186783320377792 2.7796130783600845 0 0 0
1269 1 1 5.968310365946075 9.032251551054145 9.400758215097488 2.3496304234061163 0 0 0
1245 1 1 5.968310365946075 3.6112670875474198 9.800397294543888 2.743071777700661 0 0 0
1275 1 1 5.968310365946075 10.04548228588453 9.852902916264389 2.822750558218489 0 0 0
1341 1 1 5.968310365946075 0.32348181022155315 10.209487723770865 2.8118568836299254 1 0 0
1227 1 1 5.968310365946075 1.3781787952246563 10.26301833624818 2.421803089191181 0 0 0
1246 1 1 5.968310365946075 4.351733001199441 10.53477653878732 2.45609110860594 0 0 0
1254 1 1 5.968310365946075 6.127890498548809 10.5984500812494 2.286534763005398 0 0 0
1252 1 1 5.968310365946075 7.079429591592624 10.076121500141326 2.658758733431719 0 0 0
1264 1 1 5.968310365946075 8.238766334819658 10.270268750912425 2.5410571090371903 0 0 0
1281 1 1 5.968310365946075 11.112988682892867 10.585176807469562 2.3370108996907457 0 0 0
1235 1 1 5.968310365946075 3.4437816186082078 11.543592511276188 2.4548645916996032 0 0 0
1265 1 1 5.968310365946075 7.506977657506142 11.116506879889089 2.6085738820229833 0 0 0
1271 1 1 5.968310365946075 9.32307221312758 10.827897029997926 2.240616063028846 0 0 0
898 1 1 5.968310365946075 3.3450375195893276 0.0050724655368104285 3.341052824929481 0 0 0
902 1 1 5.968310365946075 4.402011959151751 0.7438883070812862 3.2982455900641474 0 0 0
922 1 1 5.968310365946075 10.032128899205615 0.08454425430842774 3.522527991448363 0 0 0
890 1 1 5.968310365946075 0.5209528957349845 0.7335659389097664 2.9678405796510128 0 0 0
894 1 1 5.968310365946075 1.6436715041834165 0.8526052467124633 3.4088063721333777 0 0 0
992 1 1 5.968310365946075 5.3229834336296245 1.452273206971599 3.58230899653242 0 0 0
909 1 1 5.968310365946075 6.389026071414253 0.9371317122454892 2.928603590489578 0 0 0
913 1 1 5.968310365946075 7.595292455583411 0.8944904469553511 3.352197829788199 0 0 0
918 1 1 5.968310365946075 9.524372145955676 1.0726834911853846 2.9362061345147255 0 0 0
925 1 1 5.968310365946075 10.62351867368447 1.011504708749986 3.249556856842452 0 0 0
177 1 1 5.968310365946075 1.7707168773779804 4.976500169279277 0.014496004225264578 0 0 0
976 1 1 5.968310365946075 1.0878766477279944 1.8051968105313316 3.274180006195737 0 0 0
980 1 1 5.968310365946075 2.440715249620953 1.9072846825505356 3.491075374995733 0 0 0
983 1 1 5.968310365946075 3.6735782987479118 1.7523499315312734 2.9238345298776296 0 0 0
998 1 1 5.968310365946075 7.77165893410116 2.0898376830237244 3.4875405540842968 0 0 0
126 1 1 5.968310365946075 11.377000536953712 1.7999058477547218 2.8964292715204114 0 0 0
1060 1 1 5.968310365946075 1.8033949002899075 2.6865091860636015 3.0861655035134574 0 0 0
986 1 1 5.968310365946075 3.138450648630977 2.6787135383046077 3.1108843828842137 0 0 0
988 1 1 5.968310365946075 5.046082639526364 2.495803295078447 3.4174224007619785 0 0 0
993 1 1 5.968310365946075 6.228135091216824 2.347326209138382 2.956756119149538 0 0 0
1002 1 1 5.968310365946075 8.86949128346941 2.328630873037383 3.6158148012718376 0 0 0
1008 1 1 5.968310365946075 9.909619494663323 2.678545926758826 3.2102072893768026 0 0 0
972 1 1 5.968310365946075 0.761458529794184 2.8828625598659183 3.593369616092029 0 0 0
974 1 1 5.968310365946075 1.52466020546065 3.8060049261665614 3.3231466467657835 0 0 0
1945 1 1 5.968310365946075 2.5780012118871403 3.731008820968925 3.208191783580918 0 0 0
989 1 1 5.968310365946075 4.828360408438675 3.688840751031297 2.9384988930393128 0 0 0
1071 1 1 5.968310365946075 6.126061937080692 3.7068923261098434 3.4364000056386375 0 0 0
1079 1 1 5.968310365946075 7.437270665414235 3.55460052973247 2.9750194408848145 0 0 0
1005 1 1 5.968310365946075 8.566379319776392 4.073977043147242 3.0304330832192603 0 0 0
1009 1 1 5.968310365946075 9.608676422962896 3.8620804258192765 3.241430401858656 0 0 0
1052 1 1 5.968310365946075 0.3748518080555812 4.707172770657067 2.974057668314974 0 0 0
1066 1 1 5.968310365946075 2.458010712849789 4.882531648442967 3.47813001460951 0 0 0
1070 1 1 5.968310365946075 3.9272377628118798 4.5729799419534665 3.1500233569624316 0 0 0
1076 1 1 5.968310365946075 6.647772357595402 4.909055378128094 3.175021211687542 0 0 0
1082 1 1 5.968310365946075 7.730055210011431 5.028681663064804 3.2457239270645903 0 0 0
1087 1 1 5.968310365946075 9.218006762945587 4.885242625445414 3.49372436322697 0 0 0
1088 1 1 5.968310365946075 10.336434452065975 4.655541612647003 3.5779173357137894 0 0 0
1093 1 1 5.968310365946075 11.518893668868749 4.840078632204009 3.081686011169384 0 0 0
1941 1 1 5.968310365946075 1.3738126108084183 5.277650500135284 3.258834090845736 0 0 0
1152 1 1 5.968310365946075 5.076363426086757 5.414773212594776 3.1500404451450934 0 0 0
1089 1 1 5.968310365946075 10.001511787548125 5.706527242361995 3.231136070857767 0 0 0
1939 1 1 5.968310365946075 2.0950013801899696 6.248100079935693 3.5501085942547967 0 0 0
1148 1 1 5.968310365946075 4.090252402674058 6.027029399934613 3.1361671317542 0 0 0
1160 1 1 5.968310365946075 6.9336341595224535 6.047664460550668 3.353187415340998 0 0 0
1090 1 1 5.968310365946075 11.209206374113167 5.886204222582646 3.143340900438936 0 0 0
1139 1 1 5.968310365946075 0.9443318797319192 6.475779262767072 2.951190615969016 0 0 0
1150 1 1 5.968310365946075 3.1564044421053685 6.722855372550636 3.1838268213774574 0 0 0
1158 1 1 5.968310365946075 5.066670510656111 6.519516315741278 3.523995051797051 0 0 0
1162 1 1 5.968310365946075 6.053440815413461 6.806857115211343 3.055279030388221 0 0 0
1164 1 1 5.968310365946075 7.461460937423746 7.033655029550214 3.0433069563747406 0 0 0
1171 1 1 5.968310365946075 9.722084151503323 7.0158242432726485 3.0528996894142715 0 0 0
1180 1 1 5.968310365946075 11.488028494680757 6.917324924176741 3.5747456612828046 0 0 0
2031 1 1 5.968310365946075 3.638635662599243 7.945378401427887 3.432898006960954 0 0 0
1170 1 1 5.968310365946075 8.622144975117264 7.293314311362233 3.273718215729447 0 0 0