LAMMPS (19 Nov 2024 - Development - patch_19Nov2024-564-gf96768effb-modified)
