LAMMPS (19 Nov 2024 - Development - patch_19Nov2024-564-gf96768effb-modified)
OMP_NUM_THREADS environment is not set. Defaulting to 1 thread. (src/comm.cpp:99)
  using 1 OpenMP thread(s) per MPI task
###
# Box and units  (use LJ units and periodic boundaries)
###

units           lj
atom_style      ellipsoid
dimension	3
boundary	p p p

lattice		sc 0.75
Lattice spacing in x,y,z = 1.1006424 1.1006424 1.1006424
region		box block 0 10 0 10 0 10
create_box	1 box
Created orthogonal box = (0 0 0) to (11.006424 11.006424 11.006424)
  1 by 2 by 2 MPI processor grid
create_atoms	1 box
Created 1000 atoms
  using lattice units in orthogonal box = (0 0 0) to (11.006424 11.006424 11.006424)
  create_atoms CPU = 0.000 seconds

group           all type 1
1000 atoms in group all
set             type 1 mass 1.0
Setting atom values ...
  1000 settings made for mass
set             type 1 shape 1.0 0.4 0.8
Setting atom values ...
  1000 settings made for shape
set             type 1 quat/random 29898
Setting atom values ...
  1000 settings made for quat/random

velocity 	all create 0.1 87287 loop geom

neighbor        0.3 bin
neigh_modify    delay 0 every 100 check yes

###################################################################
# Pair interaction between non-bonded atoms
#
#  Lennard-Jones 12-6 potential with cutoff:
#  potential E=4epsilon[ (sigma/r)^12 - (sigma/r)^6]  for r<r_cut
#
#  1.12246152962189 = 2^(1/6) is the minimum of the potential

pair_style      lj/cut 1.12246152962189

#
#  pair_coeff for lj/cut, specify 4:
#    * atom type interacting with
#    * atom type
#    * epsilon (energy units)
#    * sigma (distance units)
#

pair_coeff      1 1 1.0 1.1

#
#  pair_modify shift yes adds a constant to the potential such
#  that E(r_cut)=0. Forces remains unchanged.
#

pair_modify     shift yes

###################################################
reset_atoms 	id sort yes
Resetting atom IDs ...
Generated 0 of 0 mixed pair_coeff terms from geometric mixing rule
Neighbor list info ...
  update: every = 100 steps, delay = 0 steps, check = yes
  max neighbors/atom: 2000, page size: 100000
  master list distance cutoff = 1.4224615
  ghost atom cutoff = 1.4224615
  binsize = 0.71123076, bins = 16 16 16
  1 neighbor lists, perpetual/occasional/extra = 1 0 0
  (1) pair lj/cut, perpetual
      attributes: half, newton on
      pair build: half/bin/atomonly/newton
      stencil: half/bin/3d
      bin: standard

comm_modify cutoff 6
#comm_style tiled
#balance 1.2 rcb

###
# Set up fixes
###

fix 1 all   nve   ###NVE ensemble
#fix 2 all   langevin   1.0 1.0   2.0   424242   ###Langevin integrator Tstart Tstop 1/friction rndseed

compute ekin all ke
compute epot all pe
variable ekin equal c_ekin
variable epot equal c_epot
variable etot equal c_ekin+c_epot

fix 3 all print 5000 "$(step)  ekin = ${ekin} | epot = ${epot} | etot = ${etot}" screen yes

compute q all property/atom quatw quati quatj quatk
compute diameter all property/atom shapex shapey shapez
dump 1 all custom 5000 dump.polymer id type x y z c_q[1] c_q[2] c_q[3] c_q[4] c_diameter[1] c_diameter[2] c_diameter[3]
dump_modify 1 colname c_q[1] quatw colname c_q[2] quati colname c_q[3] quatj colname c_q[4] quatk

###################################################

timestep 0.0001 #0.012

run 100000
Generated 0 of 0 mixed pair_coeff terms from geometric mixing rule
0  ekin = 149.85 | epot = 1172.24162402921 | etot = 1322.09162402921
Per MPI rank memory allocation (min/avg/max) = 5.469 | 5.469 | 5.469 Mbytes
   Step          Temp          E_pair         E_mol          TotEng         Press     
         0   0.1            1.1722416      0              1.3220916      17.886531    
5000  ekin = 816.687874204732 | epot = 505.42036701368 | etot = 1322.10824121841
10000  ekin = 837.502255868378 | epot = 484.554538412677 | etot = 1322.05679428105
15000  ekin = 852.573102714064 | epot = 469.541500408568 | etot = 1322.11460312263
20000  ekin = 859.744855675936 | epot = 462.331602414761 | etot = 1322.0764580907
25000  ekin = 863.644391407004 | epot = 458.398585687098 | etot = 1322.0429770941
30000  ekin = 888.522901270296 | epot = 433.543313674491 | etot = 1322.06621494479
35000  ekin = 845.375638538154 | epot = 476.668866285948 | etot = 1322.0445048241
40000  ekin = 882.033390335554 | epot = 440.085691951133 | etot = 1322.11908228669
45000  ekin = 895.410785794598 | epot = 426.792509645306 | etot = 1322.2032954399
50000  ekin = 851.521119559499 | epot = 470.71115300402 | etot = 1322.23227256352
55000  ekin = 891.161958169124 | epot = 431.140493285398 | etot = 1322.30245145452
60000  ekin = 898.670649669612 | epot = 423.599839269333 | etot = 1322.27048893895
65000  ekin = 882.018902969522 | epot = 440.326348014927 | etot = 1322.34525098445
70000  ekin = 881.58306668436 | epot = 440.843063653552 | etot = 1322.42613033791
75000  ekin = 902.110395785423 | epot = 420.191449374289 | etot = 1322.30184515971
80000  ekin = 891.065998523883 | epot = 431.245683677842 | etot = 1322.31168220173
85000  ekin = 873.012215341897 | epot = 449.254102926431 | etot = 1322.26631826833
90000  ekin = 872.520803555964 | epot = 449.593167760618 | etot = 1322.11397131658
95000  ekin = 894.729446507922 | epot = 427.495050470861 | etot = 1322.22449697878
100000  ekin = 897.97268040471 | epot = 424.276626449048 | etot = 1322.24930685376
    100000   0.5992477      0.42427663     0              1.3222493      5.9257791    
Loop time of 9.26972 on 4 procs for 100000 steps with 1000 atoms

Performance: 93206.705 tau/day, 10787.813 timesteps/s, 10.788 Matom-step/s
65.1% CPU use with 4 MPI tasks x 1 OpenMP threads

MPI task timing breakdown:
Section |  min time  |  avg time  |  max time  |%varavg| %total
---------------------------------------------------------------
Pair    | 0.22163    | 0.22699    | 0.23301    |   1.0 |  2.45
Neigh   | 0.01641    | 0.016509   | 0.016609   |   0.1 |  0.18
Comm    | 8.6408     | 8.6489     | 8.6535     |   0.2 | 93.30
Output  | 0.0056837  | 0.0059207  | 0.0060825  |   0.2 |  0.06
Modify  | 0.08368    | 0.085741   | 0.087264   |   0.5 |  0.92
Other   |            | 0.2856     |            |       |  3.08

Nlocal:            250 ave         254 max         240 min
Histogram: 1 0 0 0 0 0 0 0 1 2
Nghost:         5012.5 ave        5030 max        4990 min
Histogram: 1 0 0 1 0 0 0 0 0 2
Neighs:         1288.5 ave        1317 max        1242 min
Histogram: 1 0 0 0 0 1 0 0 0 2

Total # of neighbors = 5154
Ave neighs/atom = 5.154
Neighbor list builds = 181
Dangerous builds = 0

write_data data_out.* nocoeff
System init for write_data ...
Generated 0 of 0 mixed pair_coeff terms from geometric mixing rule
Total wall time: 0:00:09
