LAMMPS (19 Nov 2024 - Development - patch_19Nov2024-564-gf96768effb-modified)
OMP_NUM_THREADS environment is not set. Defaulting to 1 thread. (src/comm.cpp:99)
  using 1 OpenMP thread(s) per MPI task
###
# Box and units  (use LJ units and periodic boundaries)
###

units           lj
atom_style      ellipsoid
dimension	3
boundary	p p p

lattice		sc 0.75
Lattice spacing in x,y,z = 1.1006424 1.1006424 1.1006424
region		box block 0 21 0 21 0 21
create_box	1 box
Created orthogonal box = (0 0 0) to (23.113491 23.113491 23.113491)
  1 by 2 by 2 MPI processor grid
create_atoms	1 box
Created 9261 atoms
  using lattice units in orthogonal box = (0 0 0) to (23.113491 23.113491 23.113491)
  create_atoms CPU = 0.000 seconds

group           all type 1
9261 atoms in group all
set             type 1 mass 1.0
Setting atom values ...
  9261 settings made for mass
set             type 1 shape 1.0 0.4 0.8
Setting atom values ...
  9261 settings made for shape
set             type 1 quat/random 29898
Setting atom values ...
  9261 settings made for quat/random

velocity 	all create 0.1 87287 loop geom

neighbor        0.3 bin
neigh_modify    delay 0 every 100 check yes

###################################################################
# Pair interaction between non-bonded atoms
#
#  Lennard-Jones 12-6 potential with cutoff:
#  potential E=4epsilon[ (sigma/r)^12 - (sigma/r)^6]  for r<r_cut
#
#  1.12246152962189 = 2^(1/6) is the minimum of the potential

pair_style      lj/cut 1.12246152962189

#
#  pair_coeff for lj/cut, specify 4:
#    * atom type interacting with
#    * atom type
#    * epsilon (energy units)
#    * sigma (distance units)
#

pair_coeff      1 1 1.0 1.1

#
#  pair_modify shift yes adds a constant to the potential such
#  that E(r_cut)=0. Forces remains unchanged.
#

pair_modify     shift yes

###################################################
reset_atoms 	id sort yes
Resetting atom IDs ...
Generated 0 of 0 mixed pair_coeff terms from geometric mixing rule
Neighbor list info ...
  update: every = 100 steps, delay = 0 steps, check = yes
  max neighbors/atom: 2000, page size: 100000
  master list distance cutoff = 1.4224615
  ghost atom cutoff = 1.4224615
  binsize = 0.71123076, bins = 33 33 33
  1 neighbor lists, perpetual/occasional/extra = 1 0 0
  (1) pair lj/cut, perpetual
      attributes: half, newton on
      pair build: half/bin/atomonly/newton
      stencil: half/bin/3d
      bin: standard

comm_modify cutoff 6
#comm_style tiled
#balance 1.2 rcb

###
# Set up fixes
###

fix 1 all   nve/asphere   ###NVE ensemble
#fix 2 all   langevin   1.0 1.0   2.0   424242   ###Langevin integrator Tstart Tstop 1/friction rndseed

compute ekin all ke
compute epot all pe
variable ekin equal c_ekin
variable epot equal c_epot
variable etot equal c_ekin+c_epot

fix 3 all print 5000 "$(step)  ekin = ${ekin} | epot = ${epot} | etot = ${etot}" screen yes

compute q all property/atom quatw quati quatj quatk
compute diameter all property/atom shapex shapey shapez
dump 1 all custom 5000 dump.polymer id type x y z c_q[1] c_q[2] c_q[3] c_q[4] c_diameter[1] c_diameter[2] c_diameter[3]
dump_modify 1 colname c_q[1] quatw colname c_q[2] quati colname c_q[3] quatj colname c_q[4] quatk

###################################################

timestep 0.0001 #0.012

run 100000
Generated 0 of 0 mixed pair_coeff terms from geometric mixing rule
0  ekin = 1389 | epot = 10856.1296801343 | etot = 12245.1296801343
Per MPI rank memory allocation (min/avg/max) = 6.89 | 6.893 | 6.897 Mbytes
   Step          Temp          E_pair         E_mol          TotEng         Press     
         0   0.1            1.1722416      0              1.3222254      17.886598    
5000  ekin = 7576.81878394668 | epot = 4668.44203584168 | etot = 12245.2608197884
10000  ekin = 7974.78097823997 | epot = 4270.88904709046 | etot = 12245.6700253304
15000  ekin = 8059.60759530749 | epot = 4186.05190564324 | etot = 12245.6595009507
20000  ekin = 8027.5966597805 | epot = 4218.20316923794 | etot = 12245.7998290184
25000  ekin = 8038.43462469211 | epot = 4207.61469278178 | etot = 12246.0493174739
30000  ekin = 8119.87084386335 | epot = 4126.26989436278 | etot = 12246.1407382261
35000  ekin = 8083.98434704981 | epot = 4162.63114570299 | etot = 12246.6154927528
40000  ekin = 8022.24178384003 | epot = 4224.19913590593 | etot = 12246.440919746
45000  ekin = 8100.96305724868 | epot = 4145.92887716902 | etot = 12246.8919344177
50000  ekin = 8030.00368446993 | epot = 4217.23492914096 | etot = 12247.2386136109
55000  ekin = 8063.59112216146 | epot = 4183.87962632741 | etot = 12247.4707484889
60000  ekin = 8032.04581574261 | epot = 4215.66368624369 | etot = 12247.7095019863
65000  ekin = 8154.80701642769 | epot = 4092.9823053581 | etot = 12247.7893217858
70000  ekin = 8109.42020664165 | epot = 4138.28914760879 | etot = 12247.7093542504
75000  ekin = 8068.37657815954 | epot = 4179.12971736782 | etot = 12247.5062955274
80000  ekin = 8064.55836624711 | epot = 4183.26952436455 | etot = 12247.8278906117
85000  ekin = 8166.8087272747 | epot = 4080.86571931391 | etot = 12247.6744465886
90000  ekin = 8158.07861187778 | epot = 4089.55234012305 | etot = 12247.6309520008
95000  ekin = 8093.62908167384 | epot = 4153.93346925364 | etot = 12247.5625509275
100000  ekin = 8145.1144193431 | epot = 4102.49895094242 | etot = 12247.6133702855
    100000   0.58640133     0.44298661     0              1.3224936      6.1868499    
Loop time of 40.4705 on 4 procs for 100000 steps with 9261 atoms

Performance: 21348.909 tau/day, 2470.938 timesteps/s, 22.883 Matom-step/s
83.9% CPU use with 4 MPI tasks x 1 OpenMP threads

MPI task timing breakdown:
Section |  min time  |  avg time  |  max time  |%varavg| %total
---------------------------------------------------------------
Pair    | 4.7237     | 4.7375     | 4.7527     |   0.5 | 11.71
Neigh   | 0.13401    | 0.1347     | 0.13518    |   0.1 |  0.33
Comm    | 17.07      | 17.113     | 17.193     |   1.2 | 42.28
Output  | 0.047434   | 0.049      | 0.05034    |   0.5 |  0.12
Modify  | 17.148     | 17.224     | 17.268     |   1.1 | 42.56
Other   |            | 1.212      |            |       |  2.99

Nlocal:        2315.25 ave        2318 max        2312 min
Histogram: 1 0 0 1 0 0 0 0 1 1
Nghost:        12300.8 ave       12322 max       12279 min
Histogram: 1 0 0 1 0 0 1 0 0 1
Neighs:          11863 ave       11915 max       11825 min
Histogram: 2 0 0 0 0 0 1 0 0 1

Total # of neighbors = 47452
Ave neighs/atom = 5.1238527
Neighbor list builds = 199
Dangerous builds = 0

write_data data_out.* nocoeff
System init for write_data ...
Generated 0 of 0 mixed pair_coeff terms from geometric mixing rule
Total wall time: 0:00:40
