LAMMPS data file via write_data, version 2 Aug 2023, timestep = 250000, units = lj

10 atoms
1 atom types
5 ellipsoids

3 8 xlo xhi
-4 0 ylo yhi
-7 3 zlo zhi

Atoms # ellipsoid/kk

2 1 0 238.7324039657 3.1587769514044037 -3.9574596012778445 -6.609268057346187 0 0 0
10 1 1 238.7324039657 4.591618644157235 -2.5956487246533455 -5.214849429215887 1 1 2
6 1 1 238.7324039657 6.636102558717423 -2.294577657390664 -5.424283426476577 0 0 1
7 1 1 238.7324039657 6.910938597653954 -3.409484957222434 -6.700513155645578 0 1 0
4 1 0 238.7324039657 4.990943787955126 -2.252798739669462 -3.2538382464539133 0 0 0
8 1 1 238.7324039657 3.341993192812386 -0.0021077163551288577 -3.700903836127276 3 0 1
3 1 0 238.7324039657 7.037568739538642 -3.352336764075372 -4.273821540905606 -1 0 0
1 1 0 238.7324039657 7.942844894203384 -0.30123739576931235 -0.6883091362168465 -1 -1 -1
5 1 0 238.7324039657 6.045515615528527 -2.7222502154133843 -0.1707452425086058 0 0 0
9 1 1 238.7324039657 4.746691534530468 -3.993882277105116 2.2921765277211983 1 -1 0

Velocities

2 -0.011054553073719978 -0.023958040532446954 -0.051586012698143516 0 0 0
10 0.4247528384788637 -0.09592148288568353 0.256390213895183 0 0 0
6 0.03310846225882837 0.12246366764407227 0.3296161899243555 0 0 0
7 -0.10661428774560151 0.1468354225202208 -0.22566786828827873 0 0 0
4 0.011590278597751877 0.03186154693243816 0.011822945677430342 0 0 0
8 0.2636217823505306 0.34860275404331104 0.4755617919469867 0 0 0
3 -0.08616478013840995 -0.005027205001354737 0.005468543052094243 0 0 0
1 -0.029930311794340598 -0.027987688170854567 -0.17402250792177712 0 0 0
5 -0.008975355696566694 0.011350706244540735 0.08984353933192042 0 0 0
9 0.33650640191967124 -0.4168565056600867 0.06917048689180112 0 0 0

Ellipsoids

10 0.5 1 0.5 0 0.7071067811865476 0 0.7071067811865476
6 0.5 0.5 1 1 0 0 0
7 0.5 1 0.5 0.9237852583388739 0.3829109511045357 0 0
8 1 0.5 0.5 0.9237852583388739 0 0.3829109511045357 0
9 0.5 0.5 1 0.9237852583388739 0 0 0.3829109511045357
