ITEM: TIMESTEP
0
ITEM: NUMBER OF ATOMS
16
ITEM: BOX BOUNDS pp pp pp
-2.0000000000000000e+01 2.0000000000000000e+01
-2.0000000000000000e+01 2.0000000000000000e+01
-2.0000000000000000e+01 2.0000000000000000e+01
ITEM: ATOMS id mol type x y z ix iy iz vx vy vz c_quat[1] c_quat[2] c_quat[3] c_quat[4] angmomx angmomy angmomz
1 1 1 -6.133472972454683e-01 -6.574781716697657e-01  3.606522635120202e-01 0 0 0  5.386890022865587e-02  2.262922525602673e-02  2.488229114473675e-01  9.964752158482045e-01 -5.325355573323980e-02  1.139116380710251e-02 -6.380787090289707e-02  1.772010258006941e-01 -2.958853170000101e-01 -2.624137503614725e-01
2 1 2 -4.526276424735620e-01 -1.003065053434590e+00  7.258693379233350e-01 0 0 0 -3.995003075629463e-02  2.696951106370198e-01 -1.898645454819566e-01  9.369923833143513e-01  1.122071604464856e-01  6.732538499716349e-02  3.239168400846305e-01 -3.061453937596818e-02 -1.176951893148060e-01  4.007470242647321e-02
3 1 3 -9.883421085226374e-02 -1.239775807128058e+00  1.069462285786362e+00 0 0 0 -2.078453529520138e-01 -1.362872235767304e-01 -6.062477950201746e-02  7.979649320918270e-01  1.447309635452787e-01  1.837414269936639e-01  5.554673737937029e-01 -3.676034584820381e-02 -6.308707793373186e-02 -1.479860157608762e-01
4 1 4  2.937771854299740e-01 -1.257975092489986e+00  1.425891608660694e+00 0 0 0 -2.396982418131700e-01 -5.624721730878831e-01  3.247442290503672e-02  5.660864821344559e-01  1.468827549948105e-01  9.873742533340191e-02  8.051226439917721e-01 -1.652364596501651e-01  2.860623077030974e-01  3.354351975310588e-01
5 1 1  6.286896795685166e-01 -1.018334339511973e+00  1.768934633967283e+00 0 0 0 -1.611489735682835e-01 -2.288969747076015e-01 -1.355332496264956e-01  2.533023785125306e-01  1.206231316167983e-01  8.583012223905846e-02  9.559922359911086e-01  7.151030852881342e-02 -9.415592891043179e-02  1.342288153931229e-01
6 1 2  7.901522619067975e-01 -6.766341805565261e-01  2.154016070549574e+00 0 0 0 -4.701706588477693e-02  1.921671558511004e-01  1.458824279129722e-01 -3.855807343534716e-02  8.405913137017908e-02  2.236505169306371e-02  9.954632800204194e-01  9.218622989776322e-02 -5.640128930702024e-01  9.287105657777776e-02
7 1 3  7.115777184886873e-01 -4.019557932514353e-01  2.569568683291528e+00 0 0 0  5.098438305112513e-02 -3.845955552200959e-02 -1.424419628574967e-01 -4.559284433024802e-01  1.004550065061007e-01 -5.252474529475878e-02  8.827679181910482e-01  3.479046835475834e-01  4.244922695910593e-01 -1.358288260435836e-01
8 1 4  4.697331037700536e-01 -3.025169796710685e-01  3.066800711751920e+00 0 0 0  3.782797134841193e-01 -4.953992506010833e-02  1.626392045834847e-01  7.680212215404908e-01 -9.582139884533597e-03  3.658677589040892e-02 -6.393066507464399e-01  4.428876596361290e-02  7.868414126013584e-02 -1.271360044432503e-01
9 2 1  4.056113349449895e-01 -1.443775499211899e+00  3.059072650334111e+00 0 0 0  4.912038408665491e-02  4.126064731871670e-02  1.222385633449523e-02 -2.329997575451234e-01  6.886863952313410e-01  6.747873944883376e-01 -1.268232401684158e-01  3.282916621721876e-02 -1.267054709525600e-04  1.559787854176960e-01
10 2 2 -3.202842905928804e-02 -1.294752097116472e+00  2.720107115139219e+00 0 0 0  1.939216183073483e-01  1.107523548538194e-01 -4.050505160199710e-02 -2.466206187190723e-01  8.744456399178389e-01  3.937083608782400e-01 -1.397026120939516e-01 -1.700813500181381e-01 -4.563093565840761e-01 -3.031851362703951e-01
11 2 3 -3.161385511231423e-01 -9.084141759061595e-01  2.412520787178205e+00 0 0 0 -3.513607339206460e-01 -1.882241906753569e-01  3.614793819905130e-01 -8.747590085090901e-02  9.773676023882290e-01  1.449354911309558e-01 -1.268630757266878e-01 -3.708221604627426e-01 -4.910838182594122e-01  9.435948331955418e-02
12 2 4 -3.893939125182087e-01 -4.866605488242826e-01  2.006177777000424e+00 0 0 0 -1.188642917357977e-01  2.235528245655188e-01  9.265586122144348e-03 -3.181169300779214e-02  9.634374984140114e-01 -2.442360692534372e-01 -1.054748563087919e-01 -2.823010018885836e-01  1.027648566082889e-01  1.017523347678070e-01
13 3 1 -6.232643040853247e-02 -7.155965522127516e-02  1.559320605273071e+00 0 0 0 -1.446616296238799e-01 -1.155205990978724e-01  1.331477187595642e-01 -3.278607069657226e-02  7.922941528811774e-01 -6.084214170523914e-01 -3.191282109962716e-02 -2.549872189037434e-01  2.754663721641154e-01  5.806416868630132e-02
14 3 2  1.788409039091334e-01 -5.516721349427200e-02  1.021273149730915e+00 0 0 0  5.154712003586254e-02 -3.661102651077563e-01 -6.630782880801242e-02  4.718868628834144e-02  6.316396208287697e-01 -7.737349519945346e-01  1.178309584462780e-02 -1.199984717331652e-01  6.844768922886051e-02  2.161595932308759e-01
15 3 3  4.513439961906016e-01 -2.379560738327449e-01  5.957328539615991e-01 0 0 0 -2.021424496209139e-01  2.334122693355961e-01  8.133374252278069e-03 -5.869980642620334e-02 -3.422935820341442e-01  9.376740835056506e-01  1.251996587850869e-02 -1.701391112413525e-01  1.870292260510287e-02 -2.682954134361106e-01
16 3 4  5.077649359807950e-01 -5.565625134533541e-01  1.655875784458827e-01 0 0 0 -1.920213116286801e-01 -8.105295741355378e-02 -4.693508108850740e-02 -8.582818143150042e-02  8.707732197394232e-04  9.939540921464659e-01 -6.846917358531610e-02  1.733210765264759e-02 -3.287658886280769e-01  1.085334141225924e-01
ITEM: TIMESTEP
1000
ITEM: NUMBER OF ATOMS
16
ITEM: BOX BOUNDS pp pp pp
-2.0000000000000000e+01 2.0000000000000000e+01
-2.0000000000000000e+01 2.0000000000000000e+01
-2.0000000000000000e+01 2.0000000000000000e+01
ITEM: ATOMS id mol type x y z ix iy iz vx vy vz c_quat[1] c_quat[2] c_quat[3] c_quat[4] angmomx angmomy angmomz
1 1 1 -6.128610371907903e-01 -6.573036932272214e-01  3.630457416699767e-01 0 0 0  4.339023260213471e-02  1.230126966082676e-02  2.293686544097138e-01  9.964256627172750e-01 -5.085287652110039e-02  8.605682114830281e-03 -6.690161330870566e-02  2.016442485122542e-01 -2.422394299030971e-01 -2.538864245225244e-01
2 1 2 -4.530582053130318e-01 -1.000366870387769e+00  7.238836657851316e-01 0 0 0 -4.617488758797119e-02  2.695759300634137e-01 -2.064871756058684e-01  9.369830019969474e-01  1.112803033186948e-01  6.643821330092714e-02  3.244464699691898e-01 -6.354238715916771e-02 -9.006586847192483e-02  4.022206738790787e-02
3 1 3 -1.009487904509234e-01 -1.241055825211486e+00  1.069061648445920e+00 0 0 0 -2.149648754314642e-01 -1.197762159919600e-01 -1.944829484467240e-02  7.991215457504897e-01  1.444998144039193e-01  1.826960364002489e-01  5.542081892558246e-01  3.630674896160387e-02 -1.096378068020868e-01 -1.574915733395313e-01
4 1 4  2.913982288053460e-01 -1.263516020266016e+00  1.426133883390713e+00 0 0 0 -2.360881033988199e-01 -5.454649923316760e-01  1.618484580728187e-02  5.629293558414483e-01  1.479296223055655e-01  1.028256654553755e-01  8.066314212204505e-01 -1.972067833508153e-01  2.791148979268210e-01  3.414942129463410e-01
5 1 1  6.271401264882105e-01 -1.020677141268070e+00  1.767552178145798e+00 0 0 0 -1.487413181525215e-01 -2.394030766377378e-01 -1.405099503996473e-01  2.518101603478563e-01  1.196768037376481e-01  8.493434413545631e-02  9.565852094711726e-01  7.605433545205412e-02 -9.237648970552377e-02  1.355905211629984e-01
6 1 2  7.897835375677134e-01 -6.747356881807325e-01  2.155545306357414e+00 0 0 0 -2.725935018132294e-02  1.871109893976894e-01  1.608348253990309e-01 -3.971407941882871e-02  7.776692563475518e-02  2.168109534971625e-02  9.959442892439667e-01  8.711785300189133e-02 -5.222405705483355e-01  1.185315905463500e-01
7 1 3  7.121159936746470e-01 -4.022441356059805e-01  2.568283508667475e+00 0 0 0  5.694219750793948e-02 -1.907473538176646e-02 -1.142181552579389e-01 -4.547059738274701e-01  1.028968029073518e-01 -5.830329067381511e-02  8.827544684756131e-01  3.245979451529328e-01  4.206659057519599e-01 -1.290486210897141e-01
8 1 4  4.735450662315482e-01 -3.030225111865709e-01  3.068400230841502e+00 0 0 0  3.840604134973949e-01 -5.156742120303313e-02  1.571347005665946e-01  7.669837845596318e-01 -9.858870689299864e-03  3.760909807188718e-02 -6.404874960789908e-01  2.334250844655318e-02  9.354041968631779e-02 -1.462387346261077e-01
9 2 1  4.060719730191009e-01 -1.443401834055860e+00  3.059077180934641e+00 0 0 0  4.308728591160039e-02  3.345301764830676e-02 -1.128186864896105e-02 -2.329283588396286e-01  6.874241949986820e-01  6.760464386504680e-01 -1.270966898338049e-01  5.568685930701491e-03  1.210772142283150e-03  1.557013342298409e-01
10 2 2 -3.007055232042749e-02 -1.293671364279765e+00  2.719700716486056e+00 0 0 0  1.972324929328112e-01  1.053919944415116e-01 -4.093245156603437e-02 -2.431078893403323e-01  8.769916925528920e-01  3.918128896551925e-01 -1.351546700404774e-01 -2.086350129878345e-01 -4.565893887677411e-01 -2.691061763959784e-01
11 2 3 -3.198223777440206e-01 -9.102368120550628e-01  2.416063364786839e+00 0 0 0 -3.848274040594573e-01 -1.760091053540513e-01  3.457736980182798e-01 -8.248265895906687e-02  9.782807944455185e-01  1.457642808474857e-01 -1.221313744256695e-01 -3.551661678279726e-01 -4.708935316474267e-01  6.193317255399976e-02
12 2 4 -3.906198210500543e-01 -4.844478472600919e-01  2.006351037783378e+00 0 0 0 -1.262059852809255e-01  2.186851490273130e-01  2.523756084202681e-02 -2.826011232154860e-02  9.636981640892853e-01 -2.434867835782047e-01 -1.058366704184095e-01 -2.855099228649080e-01  1.001774942438068e-01  1.020731791630730e-01
13 3 1 -6.375067782718526e-02 -7.279420989028357e-02  1.560559492402013e+00 0 0 0 -1.402705117485464e-01 -1.314745171621038e-01  1.142691982010666e-01 -2.858222935505417e-02  7.927376512892029e-01 -6.080082555912428e-01 -3.280294996592661e-02 -2.301658222539328e-01  2.877452260382526e-01  7.404274955820633e-02
14 3 2  1.793762750788752e-01 -5.886262676758334e-02  1.020582728498995e+00 0 0 0  5.541187021019934e-02 -3.727721736721610e-01 -7.181319587282550e-02  4.849364653050931e-02  6.335251167958935e-01 -7.721016668196128e-01  1.238179022999787e-02 -9.177975694636109e-02  5.878915476642236e-02  2.193808220626845e-01
15 3 3  4.493649498582836e-01 -2.356193149957790e-01  5.958829487462142e-01 0 0 0 -1.935851343981693e-01  2.337884918070855e-01  2.162473637200465e-02 -5.968224515570797e-02 -3.392512652232220e-01  9.387388288743427e-01  1.077124975315762e-02 -2.066799918967824e-01  3.283471319648121e-02 -2.713487092593517e-01
16 3 4  5.058600780586856e-01 -5.573582428998932e-01  1.651830434175086e-01 0 0 0 -1.889948847335702e-01 -7.785888074273468e-02 -3.388074207867944e-02 -8.204625579212935e-02 -1.524622796150230e-04  9.942822960589134e-01 -6.834547834027591e-02  2.248053435685769e-02 -3.180402719334684e-01  1.113473124838291e-01
ITEM: TIMESTEP
2000
ITEM: NUMBER OF ATOMS
16
ITEM: BOX BOUNDS pp pp pp
-2.0000000000000000e+01 2.0000000000000000e+01
-2.0000000000000000e+01 2.0000000000000000e+01
-2.0000000000000000e+01 2.0000000000000000e+01
ITEM: ATOMS id mol type x y z ix iy iz vx vy vz c_quat[1] c_quat[2] c_quat[3] c_quat[4] angmomx angmomy angmomz
1 1 1 -6.124794076409646e-01 -6.572310049880694e-01  3.652295948512434e-01 0 0 0  3.293498999025331e-02  2.315525689812299e-03  2.068983418536071e-01  9.963692230230115e-01 -4.821703614262095e-02  6.458283548661268e-03 -6.986973172802964e-02  2.255407850870886e-01 -1.868798499645659e-01 -2.466564045275938e-01
2 1 2 -4.535508418086552e-01 -9.976810359780016e-01  7.217571304662107e-01 0 0 0 -5.231158589346861e-02  2.672085711162859e-01 -2.178536669088864e-01  9.369928900450931e-01  1.101166430865441e-01  6.594282953736655e-02  3.249156692942039e-01 -9.224842722595572e-02 -6.643126401912114e-02  3.940151496563803e-02
3 1 3 -1.031317124682962e-01 -1.242172390423837e+00  1.069073272314226e+00 0 0 0 -2.215444517683158e-01 -1.035843433791803e-01  2.171480293357059e-02  8.003059977348080e-01  1.446627225469234e-01  1.807478435098919e-01  5.530942268380034e-01  1.088824182645275e-01 -1.551398688289149e-01 -1.656199730077948e-01
4 1 4  2.890556384096912e-01 -1.268879656791070e+00  1.426219725137247e+00 0 0 0 -2.324137578146550e-01 -5.270367668781558e-01  1.219616887483825e-03  5.597799908412534e-01  1.487093462652859e-01  1.071474660887246e-01  8.081159030101333e-01 -2.247721984033580e-01  2.719446855315403e-01  3.427404626631933e-01
5 1 1  6.257148863659874e-01 -1.023116895007343e+00  1.766133618679332e+00 0 0 0 -1.363229000404140e-01 -2.482581902720361e-01 -1.427344659795669e-01  2.502914791355036e-01  1.187815266361302e-01  8.399949738557952e-02  9.571777310620647e-01  8.079578065331502e-02 -8.695188643555070e-02  1.370350509837994e-01
6 1 2  7.895967411373672e-01 -6.728998962470346e-01  2.157248186500441e+00 0 0 0 -1.059360071165503e-02  1.796766661896877e-01  1.804014705327937e-01 -4.116192628622069e-02  7.201175497363019e-02  2.106046141046663e-02  9.963315010252382e-01  8.110544722425019e-02 -4.693599007146123e-01  1.428622303974737e-01
7 1 3  7.127214935222215e-01 -4.023347970704263e-01  2.567290841342487e+00 0 0 0  6.437834568113199e-02  1.057972164753593e-03 -8.403745216248611e-02 -4.535253244044367e-01  1.054260525769452e-01 -6.379960920179797e-02  8.826832599679182e-01  2.990641624699540e-01  4.161479479258333e-01 -1.189775084593475e-01
8 1 4  4.774131594829805e-01 -3.035480940602402e-01  3.069940994896264e+00 0 0 0  3.894954984961364e-01 -5.352474031009946e-02  1.509067536570944e-01  7.657912236557549e-01 -1.042008767002187e-02  3.861532960547404e-02 -6.418442800744053e-01  3.117526172164906e-03  1.089472658038909e-01 -1.660166828045541e-01
9 2 1  4.064748343743943e-01 -1.443106899724171e+00  3.058847948172768e+00 0 0 0  3.758010101558963e-02  2.550725876128347e-02 -3.450675567482735e-02 -2.326524224796511e-01  6.862368326313946e-01  6.772546478845867e-01 -1.275852725556750e-01 -2.110416898321095e-02  1.937584893443670e-03  1.543387288369819e-01
10 2 2 -2.809207500300560e-02 -1.292644276472824e+00  2.719285807061526e+00 0 0 0  1.980555131967539e-01  1.000245505454352e-01 -4.215769983463067e-02 -2.391410876607835e-01  8.794464460944685e-01  3.901959393781818e-01 -1.308916251599199e-01 -2.482873955364226e-01 -4.534841283633281e-01 -2.318644666599958e-01
11 2 3 -3.238234726734913e-01 -9.119291636996852e-01  2.419413110247283e+00 0 0 0 -4.148139650606535e-01 -1.622370558269780e-01  3.231344815732231e-01 -7.773946269002688e-02  9.791525873383716e-01  1.462229838879219e-01 -1.176249362684263e-01 -3.411873000045131e-01 -4.404823281343282e-01  3.033691805815887e-02
12 2 4 -3.919155332961938e-01 -4.822929504771709e-01  2.006678889837765e+00 0 0 0 -1.327992568293121e-01  2.119864006187884e-01  4.012068318448784e-02 -2.468250329392730e-02  9.639488155185272e-01 -2.427381608387832e-01 -1.061679818221050e-01 -2.878846561997670e-01  9.899703146932755e-02  1.015234127156581e-01
13 3 1 -6.513357190447974e-02 -7.419056272277351e-02  1.561599218580676e+00 0 0 0 -1.363977235740420e-01 -1.478537525038620e-01  9.336120819385825e-02 -2.452699126454341e-02  7.932595928796196e-01 -6.074388961732178e-01 -3.399459397951445e-02 -2.021571492232082e-01  3.001006033586662e-01  8.856606630224836e-02
14 3 2  1.799469883591655e-01 -6.261872665587095e-02  1.019836648132641e+00 0 0 0  5.863021042639902e-02 -3.782545494499267e-01 -7.738895179659373e-02  4.950338872663672e-02  6.354427459377621e-01 -7.704532165192539e-01  1.279735499204206e-02 -6.268295132185028e-02  4.919037000843993e-02  2.212420275943578e-01
15 3 3  4.474736451114843e-01 -2.332834160302290e-01  5.961592288587549e-01 0 0 0 -1.846219002066558e-01  2.332310333964999e-01  3.328124125705712e-02 -6.093673087103546e-02 -3.361574270000673e-01  9.397921229383196e-01  8.698549679797270e-03 -2.395127390159944e-01  4.410726809428727e-02 -2.721533570825520e-01
16 3 4  5.039841152946648e-01 -5.581153139537354e-01  1.649110251341224e-01 0 0 0 -1.862434792177806e-01 -7.335285629338349e-02 -2.050322237481406e-02 -7.839220003848787e-02 -1.206306386521626e-03  9.945883620479008e-01 -6.817035922526329e-02  2.641561318024740e-02 -3.060631389206364e-01  1.116140312270286e-01
ITEM: TIMESTEP
3000
ITEM: NUMBER OF ATOMS
16
ITEM: BOX BOUNDS pp pp pp
-2.0000000000000000e+01 2.0000000000000000e+01
-2.0000000000000000e+01 2.0000000000000000e+01
-2.0000000000000000e+01 2.0000000000000000e+01
ITEM: ATOMS id mol type x y z ix iy iz vx vy vz c_quat[1] c_quat[2] c_quat[3] c_quat[4] angmomx angmomy angmomz
1 1 1 -6.122024960957241e-01 -6.572553807422902e-01  3.671735328077573e-01 0 0 0  2.243117285546175e-02 -7.070921461820313e-03  1.813742409861391e-01  9.963076830734691e-01 -4.535557252096043e-02  4.968455084397951e-03 -7.272679797809169e-02  2.488535632307064e-01 -1.300119897838594e-01 -2.404040925465544e-01
2 1 2 -4.541031507358134e-01 -9.950304139326674e-01  7.195475247774867e-01 0 0 0 -5.806427148488480e-02  2.625297955863472e-01 -2.229479820101250e-01  9.370234514909529e-01  1.087511926609467e-01  6.577056609794812e-02  3.253220897602236e-01 -1.156853736099766e-01 -4.799615009120452e-02  3.727747905972396e-02
3 1 3 -1.053784372257629e-01 -1.243128405210244e+00  1.069493656971073e+00 0 0 0 -2.277502418026962e-01 -8.766234442837947e-02  6.219043914337740e-02  8.015032668867602e-01  1.452151492315493e-01  1.779169951886843e-01  5.521327887623952e-01  1.798325499272550e-01 -1.992917331341780e-01 -1.718855466938840e-01
4 1 4  2.867503766422197e-01 -1.274052456216388e+00  1.426163263859780e+00 0 0 0 -2.286129021970418e-01 -5.073182405222612e-01 -1.225009527945381e-02  5.566756755374349e-01  1.492565110565426e-01  1.116511555793036e-01  8.095484578639965e-01 -2.475368480189609e-01  2.646432495621627e-01  3.391384894643165e-01
5 1 1  6.244130168926944e-01 -1.025636262593151e+00  1.764706909966303e+00 0 0 0 -1.240988557657819e-01 -2.553017618306359e-01 -1.421359268316102e-01  2.487421853498990e-01  1.179781256235398e-01  8.303397606404192e-02  9.577650264656301e-01  8.571583390921278e-02 -7.785593095304873e-02  1.384711904247174e-01
6 1 2  7.895623878480050e-01 -6.711490175283535e-01  2.159164165595541e+00 0 0 0  3.290328054069250e-03  1.701833699066668e-01  2.032173835035422e-01 -4.288572056998997e-02  6.690878311073030e-02  2.050499803750909e-02  9.966260957697806e-01  7.429079848623442e-02 -4.078463270525348e-01  1.654165267702911e-01
7 1 3  7.134074380997282e-01 -4.022208272823165e-01  2.566607378656921e+00 0 0 0  7.297771680516535e-02  2.183594179346171e-02 -5.246996136179879e-02 -4.524162627674376e-01  1.080466845327182e-01 -6.898618211469323e-02  8.825453789025643e-01  2.719541975142767e-01  4.106306355136195e-01 -1.061841649053786e-01
8 1 4  4.813336243209215e-01 -3.040922655673879e-01  3.071416313778202e+00 0 0 0  3.945252100937102e-01 -5.526003855359495e-02  1.440627716264767e-01  7.644371940095704e-01 -1.126198879837374e-02  3.961525216856369e-02 -6.433813611060714e-01 -1.626042174373177e-02  1.247997021475434e-01 -1.864038678010042e-01
9 2 1  4.068256189377197e-01 -1.442892287502620e+00  3.058388437366532e+00 0 0 0  3.268581815235318e-02  1.738205705627378e-02 -5.731381470134040e-02 -2.321739401205999e-01  6.851318785411931e-01  6.784060418831507e-01 -1.282763145398587e-01 -4.707177799945247e-02  1.975881898891824e-03  1.518983157251468e-01
10 2 2 -2.611742700031142e-02 -1.291670934286036e+00  2.718855878345055e+00 0 0 0  1.964833911877690e-01  9.463750656480446e-02 -4.388879391418074e-02 -2.347239963156605e-01  8.817942338136302e-01  3.888781085398126e-01 -1.269542888804322e-01 -2.883091258936739e-01 -4.473916528006193e-01 -1.923875910535791e-01
11 2 3 -3.281073098139873e-01 -9.134777756858160e-01  2.422507735911617e+00 0 0 0 -4.413978878648966e-01 -1.473303560385588e-01  2.949996061629629e-01 -7.324281612136210e-02  9.799776631437883e-01  1.463128677764059e-01 -1.134540186546785e-01 -3.285432702962579e-01 -4.018292001461407e-01 -2.365760383499670e-04
12 2 4 -3.932728586956016e-01 -4.802143111984952e-01  2.007148691162887e+00 0 0 0 -1.385097673073724e-01  2.034307782584809e-01  5.357887331483249e-02 -2.108607690509005e-02  9.641844489532750e-01 -2.419998118960420e-01 -1.064885759117019e-01 -2.892167622363214e-01  9.953915126177885e-02  9.999506595249531e-02
13 3 1 -6.648044713285803e-02 -7.575218370702375e-02  1.562420940909126e+00 0 0 0 -1.330684040960596e-01 -1.645029669018199e-01  7.072190374697164e-02 -2.064745711968695e-02  7.938502180491188e-01 -6.067246207707517e-01 -3.550701858006142e-02 -1.715216687468076e-01  3.124155128251254e-01  1.016494836409393e-01
14 3 2  1.805469964860499e-01 -6.642390076055565e-02  1.019035796744403e+00 0 0 0  6.128340049447204e-02 -3.825911282764525e-01 -8.270794856268045e-02  5.021460361772989e-02  6.373814207298888e-01 -7.688002380664782e-01  1.302351875605487e-02 -3.329065341192356e-02  3.981646414717977e-02  2.217325726546984e-01
15 3 3  4.456733266015121e-01 -2.309579988289856e-01  5.965407354854806e-01 0 0 0 -1.754140145171641e-01  2.316819057881538e-01  4.258829105601493e-02 -6.241132583920066e-02 -3.330388769210124e-01  9.408240234622411e-01  6.331646113325311e-03 -2.677885793197101e-01  5.177125208789463e-02 -2.706780438979837e-01
16 3 4  5.021343485109713e-01 -5.588216020244657e-01  1.647728417282348e-01 0 0 0 -1.837486549177906e-01 -6.773787337174272e-02 -7.162601537759264e-03 -7.487902096492968e-02 -2.262584277579850e-03  9.948719196406252e-01 -6.795495892352522e-02  2.920455563405506e-02 -2.933769720985996e-01  1.095974644510111e-01
ITEM: TIMESTEP
4000
ITEM: NUMBER OF ATOMS
16
ITEM: BOX BOUNDS pp pp pp
-2.0000000000000000e+01 2.0000000000000000e+01
-2.0000000000000000e+01 2.0000000000000000e+01
-2.0000000000000000e+01 2.0000000000000000e+01
ITEM: ATOMS id mol type x y z ix iy iz vx vy vz c_quat[1] c_quat[2] c_quat[3] c_quat[4] angmomx angmomy angmomz
1 1 1 -6.120311780798605e-01 -6.573698245353654e-01  3.688467480862987e-01 0 0 0  1.182222566410587e-02 -1.569687755871798e-02  1.527622639403514e-01  9.962416561390881e-01 -4.227835641557578e-02  4.153801092430397e-03 -7.548409824942662e-02  2.715485861073641e-01 -7.177351232270882e-02 -2.349525091191002e-01
2 1 2 -4.547100419981511e-01 -9.924380632467151e-01  7.173217406382513e-01 0 0 0 -6.319391343096396e-02  2.555678114778293e-01 -2.209823725914350e-01  9.370765551315636e-01  1.072252470249666e-01  6.583687873754100e-02  3.256620665986366e-01 -1.330031027492259e-01 -3.574632522086031e-02  3.361748441896941e-02
3 1 3 -1.076859197395627e-01 -1.243926556134278e+00  1.070312434395327e+00 0 0 0 -2.337159381534695e-01 -7.201819952264045e-02  1.012688838610828e-01  8.026947853158214e-01  1.461423996482637e-01  1.742343406292821e-01  5.513310032977594e-01  2.479127939256048e-01 -2.417532209129379e-01 -1.758689764545959e-01
4 1 4  2.844839731415943e-01 -1.279022110662042e+00  1.425980187533607e+00 0 0 0 -2.246346085856124e-01 -4.864259171011439e-01 -2.408084118471393e-02  5.536533724968751e-01  1.496088662631302e-01  1.162821636105101e-01  8.109029465258810e-01 -2.652009161723116e-01  2.572747082420505e-01  3.307166409060340e-01
5 1 1  6.232316818333122e-01 -1.028216470663905e+00  1.763300232116533e+00 0 0 0 -1.122418197325811e-01 -2.604089207910645e-01 -1.387411593681221e-01  2.471593472143654e-01  1.173069744737851e-01  8.204626240403436e-02  9.583421840083552e-01  9.074686224480094e-02 -6.520185952371979e-02  1.398084195977893e-01
6 1 2  7.896545042286747e-01 -6.695020235741402e-01  2.161318767468625e+00 0 0 0  1.475926646014155e-02  1.589501796833558e-01  2.279112366489018e-01 -4.486471465734415e-02  6.254442035216855e-02  2.001525718518040e-02  9.968323541806504e-01  6.688346082526068e-02 -3.401567753210823e-01  1.858866509539411e-01
7 1 3  7.141838652971526e-01 -4.018962125536344e-01  2.566244262721839e+00 0 0 0  8.242286648297567e-02  4.317408299518349e-02 -2.005513791222930e-02 -4.514035256986302e-01  1.107562492209513e-01 -7.384101457105120e-02  8.823352054703874e-01  2.438752040681921e-01  4.038441511699132e-01 -9.128341595352321e-02
8 1 4  4.853021317616157e-01 -3.046520588431270e-01  3.072820517865217e+00 0 0 0  3.990955930649969e-01 -5.662473542708274e-02  1.366984802560444e-01  7.629155699050491e-01 -1.237884215987802e-02  4.061872450767539e-02 -6.451020978749060e-01 -3.463881125901571e-02  1.409891938349781e-01 -2.073219353498944e-01
9 2 1  4.071308579792981e-01 -1.442759980511847e+00  3.057703555934264e+00 0 0 0  2.848336878335185e-02  9.040440187622862e-03 -7.955522870268417e-02 -2.314952665370464e-01  6.841164897199774e-01  6.794949688594591e-01 -1.291555548896011e-01 -7.219219049149125e-02  1.255556645802577e-03  1.483901893256431e-01
10 2 2 -2.417004407648372e-02 -1.290751757204713e+00  2.718407265589526e+00 0 0 0  1.926203243941493e-01  8.918008868103941e-02 -4.585019284629493e-02 -2.298669240867285e-01  8.840218703501125e-01  3.878730298370135e-01 -1.233735898750242e-01 -3.280400359986388e-01 -4.387139799858960e-01 -1.515793119474205e-01
11 2 3 -3.326405448597320e-01 -9.148732825963335e-01  2.425299644200639e+00 0 0 0 -4.647145952056194e-01 -1.316744822143496e-01  2.628195534508680e-01 -6.898967353219587e-02  9.807534810330817e-01  1.460402817761469e-01 -1.097053803883712e-01 -3.168814536572597e-01 -3.569723477475008e-01 -2.965655648121696e-02
12 2 4 -3.946824793136929e-01 -4.782305437518925e-01  2.007744898410675e+00 0 0 0 -1.432469670512988e-01  1.930135077885330e-01  6.536979091397878e-02 -1.747947579825909e-02  9.643995217362578e-01 -2.412823235810190e-01 -1.068216772384700e-01 -2.893586910325883e-01  1.020044656009561e-01  9.736712993559886e-02
13 3 1 -6.779674068978914e-02 -7.748103712139678e-02  1.563009014310854e+00 0 0 0 -1.302784396147025e-01 -1.812772059119226e-01  4.669091919840128e-02 -1.696622156543195e-02  7.945002822003339e-01 -6.058763112274655e-01 -3.735430902562448e-02 -1.388833561157441e-01  3.245594505490319e-01  1.133546405939018e-01
14 3 2  1.811710133165202e-01 -7.026677585518067e-02  1.018184676869575e+00 0 0 0  6.344363845780250e-02 -3.857947443698972e-01 -8.736663692752038e-02  5.063009090807496e-02  6.393293732109092e-01 -7.671531962042103e-01  1.305833059968648e-02 -4.300230415607675e-03  3.084450641419400e-02  2.208150828846273e-01
15 3 3  4.439656663101242e-01 -2.286533061822850e-01  5.970016403463714e-01 0 0 0 -1.661155624568525e-01  2.290737898855985e-01  4.909242397626689e-02 -6.404355786538035e-02 -3.299234343200624e-01  9.418254678642279e-01  3.706516521986182e-03 -2.907660100906256e-01  5.518218368735393e-02 -2.668910679995335e-01
16 3 4  5.003083829056414e-01 -5.594669623942470e-01  1.647667814322361e-01 0 0 0 -1.814934013871100e-01 -6.117309423342190e-02  5.874402628472416e-03 -7.151448523383394e-02 -3.295891303453355e-03  9.951332356675651e-01 -6.771010834475118e-02  3.090158855558436e-02 -2.803554296743982e-01  1.055112651646204e-01
ITEM: TIMESTEP
5000
ITEM: NUMBER OF ATOMS
16
ITEM: BOX BOUNDS pp pp pp
-2.0000000000000000e+01 2.0000000000000000e+01
-2.0000000000000000e+01 2.0000000000000000e+01
-2.0000000000000000e+01 2.0000000000000000e+01
ITEM: ATOMS id mol type x y z ix iy iz vx vy vz c_quat[1] c_quat[2] c_quat[3] c_quat[4] angmomx angmomy angmomz
1 1 1 -6.119663786145879e-01 -6.575667149588695e-01  3.702186668272656e-01 0 0 0  1.110632322227109e-03 -2.353635322709264e-02  1.211172881342746e-01  9.961702616072725e-01 -3.899564791782638e-02  4.029336742733202e-03 -7.815314311133707e-02  2.935852841603655e-01 -1.235342783342467e-02 -2.303432081423406e-01
2 1 2 -4.553643987078843e-01 -9.899262184597137e-01  7.151529831926623e-01 0 0 0 -6.753778139351095e-02  2.464615539066487e-01 -2.114994397342242e-01  9.371544830874201e-01  1.055847182506305e-01  6.604541127031099e-02  3.259315046926595e-01 -1.436463490876682e-01 -3.033633626368904e-02  2.833594652630178e-02
3 1 3 -1.100523216895248e-01 -1.244569932871576e+00  1.071511715586931e+00 0 0 0 -2.395509161499903e-01 -5.672545045788018e-02  1.381470148704587e-01  8.038592990321936e-01  1.474187541087127e-01  1.697431013326093e-01  5.506952132046301e-01  3.116705573000141e-01 -2.820901619981470e-01 -1.772031123621602e-01
4 1 4  2.822584080459815e-01 -1.283777401484096e+00  1.425687554175147e+00 0 0 0 -2.204395849122739e-01 -4.644612205070794e-01 -3.413925771889909e-02  5.507494458055240e-01  1.498065121679220e-01  1.209837621437125e-01  8.121551490660784e-01 -2.775360444405770e-01  2.498845281621676e-01  3.175521856310872e-01
5 1 1  6.221664974736413e-01 -1.030837709171718e+00  1.761940995511381e+00 0 0 0 -1.008885365071565e-01 -2.634980779552021e-01 -1.326769142102402e-01  2.455413410222923e-01  1.168062653040151e-01  8.104510009505364e-02  9.589042903154023e-01  9.576979336850616e-02 -4.924606387634547e-02  1.409720509258690e-01
6 1 2  7.898505895614548e-01 -6.679748782949928e-01  2.163724775057393e+00 0 0 0  2.413008565926317e-02  1.462560374155117e-01  2.533307442456466e-01 -4.707510781208875e-02  5.897873092459967e-02  1.959014803000935e-02  9.969562024598505e-01  5.910642688440775e-02 -2.683640279119907e-01  2.041205140956782e-01
7 1 3  7.150577036730165e-01 -4.013557174668194e-01  2.566207410140520e+00 0 0 0  9.241118328509275e-02  6.500089080908587e-02  1.270084316910626e-02 -4.505064211187225e-01  1.135464773942056e-01 -7.834743430319205e-02  8.820503622471193e-01  2.153822532878828e-01  3.955585610174618e-01 -7.490953466003149e-02
8 1 4  4.893138492000599e-01 -3.052230484143563e-01  3.074148813963052e+00 0 0 0  4.031601991982149e-01 -5.747617384499171e-02  1.288926570146191e-01  7.612206013340689e-01 -1.376266527314754e-02  4.163588553461355e-02 -6.470086847832311e-01 -5.183118089653735e-02  1.574015369155688e-01 -2.286764008640078e-01
9 2 1  4.073978229075592e-01 -1.442712307465046e+00  3.056799751817571e+00 0 0 0  2.504148522604000e-02  4.503882286295022e-04 -1.010704803790932e-01 -2.306193849006524e-01  6.831973197529464e-01  6.805161698493328e-01 -1.302070050497640e-01 -9.629365252976801e-02 -2.859264115854001e-04  1.438284481889029e-01
10 2 2 -2.227229393155379e-02 -1.289887843333846e+00  2.717938967694282e+00 0 0 0  1.865754593913407e-01  8.356864970304070e-02 -4.778394474684437e-02 -2.245859255304620e-01  8.861185214369550e-01  3.871873386811907e-01 -1.201710979603161e-01 -3.668854659693471e-01 -4.278466392536469e-01 -1.102965594803898e-01