# LAMMPS data file written by OVITO Basic 3.9.2

2 atoms
1 atom types

-2.0 2.0 xlo xhi
-2.0 2.0 ylo yhi
-4.0 4.0 zlo zhi

Atoms  # atomic

1 1 0.0 0.0 1.0 0 0 0
2 1 0.0 0.0 -1.0 0 0 0
#3 1 0.0 0.0 2.0 0 0 0
#4 1 0.0 0.0 -2.0 0 0 0
#5 1 0.0 0.0 3.0 0 0 0
#6 1 0.0 0.0 -3.0 0 0 0
#7 1 0.0 0.0 4.0 0 0 0
#8 1 0.0 0.0 -4.0 0 0 0
#9 1 0.0 0.0 5.0 0 0 0
#10 1 0.0 0.0 -5.0 0 0 0

Velocities

1 0.0 0.0 10
2 0.0 0.0 10
#3 0.0 0.0 10 0.0 0.0 0.0
#4 0.0 0.0 10 0.0 0.0 0.0
#5 0.0 0.0 10 0.0 0.0 0.0
#6 0.0 0.0 10 0.0 0.0 0.0
#7 0.0 0.0 10 0.0 0.0 0.0
#8 0.0 0.0 10 0.0 0.0 0.0
#9 0.0 0.0 10 0.0 0.0 0.0
#10 0.0 0.0 10 0.0 0.0 0.0
