LAMMPS (27 Jun 2024)
###
# Box and units  (use LJ units and periodic boundaries)
###

units lj

atom_style atomic

boundary        p p p

neighbor 1.5 bin
neigh_modify every 1 delay 0 check yes

read_data lmp_data
Reading data file ...
  orthogonal box = (-2 -2 -4) to (2 2 4)
  1 by 1 by 2 MPI processor grid
  reading atoms ...
  2 atoms
  reading velocities ...
  2 velocities
  read_data CPU = 0.001 seconds

reset_timestep 0

######################

group all type 1
2 atoms in group all
group polymer type 1
2 atoms in group polymer
mass 1 1

###
# Dump configs + box coords
###
dump   1   all   custom   1   dump.polymer  id type x y z  ix iy iz

###################################################################
# Stiffness term
#
# E = K * (theta-thera0)**2, K>0
#
#angle_style   harmonic
#angle_coeff   1 2.0 120.0
###################################################################

###################################################################
# Pair interaction between non-bonded atoms
#
#  Lennard-Jones 12-6 potential with cutoff:
#  potential E=4epsilon[ (sigma/r)^12 - (sigma/r)^6]  for r<r_cut
#
#  1.12246152962189 = 2^(1/6) is the minimum of the potential

pair_style      lj/cut 1.12246152962189

#
#  pair_coeff for lj/cut, specify 4:
#    * atom type interacting with
#    * atom type
#    * epsilon (energy units)
#    * sigma (distance units)
#

pair_coeff      1 1 1.0 1.0

#
#  pair_modify shift yes adds a constant to the potential such
#  that E(r_cut)=0. Forces remains unchanged.
#

pair_modify     shift yes

###################################################

#comm_modify cutoff 6
#comm_style tiled
#balance 1.2 rcb

###
# Set up fixes
###

fix 1 all   nve   ###NVE ensemble

compute ekin all ke
compute epot all pe
variable ekin equal c_ekin
variable epot equal c_epot
variable etot equal c_ekin+c_epot

fix 2 all print 1 "$(step)  ekin = ${ekin} | epot = ${epot} | etot = ${etot}" screen yes

##### Sample thermodynamic info  (temperature, energy, pressure, etc.) #####
#thermo 10000
#thermo_style   custom   step  temp  epair  emol  press pxx pyy pzz  vol
############################################################################

timestep 0.001

run 10000

CITE-CITE-CITE-CITE-CITE-CITE-CITE-CITE-CITE-CITE-CITE-CITE-CITE

Your simulation uses code contributions which should be cited:

- Type Label Framework: https://doi.org/10.1021/acs.jpcb.3c08419

@Article{Gissinger24,
 author = {Jacob R. Gissinger, Ilia Nikiforov, Yaser Afshar, Brendon Waters, Moon-ki Choi, Daniel S. Karls, Alexander Stukowski, Wonpil Im, Hendrik Heinz, Axel Kohlmeyer, and Ellad B. Tadmor},
 title = {Type Label Framework for Bonded Force Fields in LAMMPS},
 journal = {J. Phys. Chem. B},
 year =    2024,
 volume =  128,
 number =  13,
 pages =   {3282–-3297}
}

CITE-CITE-CITE-CITE-CITE-CITE-CITE-CITE-CITE-CITE-CITE-CITE-CITE

Generated 0 of 0 mixed pair_coeff terms from geometric mixing rule
Neighbor list info ...
  update: every = 1 steps, delay = 0 steps, check = yes
  max neighbors/atom: 2000, page size: 100000
  master list distance cutoff = 2.6224615
  ghost atom cutoff = 2.6224615
  binsize = 1.3112308, bins = 4 4 7
  1 neighbor lists, perpetual/occasional/extra = 1 0 0
  (1) pair lj/cut, perpetual
      attributes: half, newton on
      pair build: half/bin/atomonly/newton
      stencil: half/bin/3d
      bin: standard
0  ekin = 100 | epot = 0 | etot = 100
Per MPI rank memory allocation (min/avg/max) = 3.059 | 3.059 | 3.059 Mbytes
   Step          Temp          E_pair         E_mol          TotEng         Press     
         0   66.666667      0              0              50             0.52083333   
1  ekin = 100 | epot = 0 | etot = 100
2  ekin = 100 | epot = 0 | etot = 100
3  ekin = 100 | epot = 0 | etot = 100
4  ekin = 100 | epot = 0 | etot = 100
5  ekin = 100 | epot = 0 | etot = 100
6  ekin = 100 | epot = 0 | etot = 100
7  ekin = 100 | epot = 0 | etot = 100
8  ekin = 100 | epot = 0 | etot = 100
9  ekin = 100 | epot = 0 | etot = 100
10  ekin = 100 | epot = 0 | etot = 100
11  ekin = 100 | epot = 0 | etot = 100
12  ekin = 100 | epot = 0 | etot = 100
13  ekin = 100 | epot = 0 | etot = 100
14  ekin = 100 | epot = 0 | etot = 100
15  ekin = 100 | epot = 0 | etot = 100
16  ekin = 100 | epot = 0 | etot = 100
17  ekin = 100 | epot = 0 | etot = 100
18  ekin = 100 | epot = 0 | etot = 100
19  ekin = 100 | epot = 0 | etot = 100
20  ekin = 100 | epot = 0 | etot = 100
21  ekin = 100 | epot = 0 | etot = 100
22  ekin = 100 | epot = 0 | etot = 100
23  ekin = 100 | epot = 0 | etot = 100
24  ekin = 100 | epot = 0 | etot = 100
25  ekin = 100 | epot = 0 | etot = 100
26  ekin = 100 | epot = 0 | etot = 100
27  ekin = 100 | epot = 0 | etot = 100
28  ekin = 100 | epot = 0 | etot = 100
29  ekin = 100 | epot = 0 | etot = 100
30  ekin = 100 | epot = 0 | etot = 100
31  ekin = 100 | epot = 0 | etot = 100
32  ekin = 100 | epot = 0 | etot = 100
33  ekin = 100 | epot = 0 | etot = 100
34  ekin = 100 | epot = 0 | etot = 100
35  ekin = 100 | epot = 0 | etot = 100
36  ekin = 100 | epot = 0 | etot = 100
37  ekin = 100 | epot = 0 | etot = 100
38  ekin = 100 | epot = 0 | etot = 100
39  ekin = 100 | epot = 0 | etot = 100
40  ekin = 100 | epot = 0 | etot = 100
41  ekin = 100 | epot = 0 | etot = 100
42  ekin = 100 | epot = 0 | etot = 100
43  ekin = 100 | epot = 0 | etot = 100
44  ekin = 100 | epot = 0 | etot = 100
45  ekin = 100 | epot = 0 | etot = 100
46  ekin = 100 | epot = 0 | etot = 100
47  ekin = 100 | epot = 0 | etot = 100
48  ekin = 100 | epot = 0 | etot = 100
49  ekin = 100 | epot = 0 | etot = 100
50  ekin = 100 | epot = 0 | etot = 100
51  ekin = 100 | epot = 0 | etot = 100
52  ekin = 100 | epot = 0 | etot = 100
53  ekin = 100 | epot = 0 | etot = 100
54  ekin = 100 | epot = 0 | etot = 100
55  ekin = 100 | epot = 0 | etot = 100
56  ekin = 100 | epot = 0 | etot = 100
57  ekin = 100 | epot = 0 | etot = 100
58  ekin = 100 | epot = 0 | etot = 100
59  ekin = 100 | epot = 0 | etot = 100
60  ekin = 100 | epot = 0 | etot = 100
61  ekin = 100 | epot = 0 | etot = 100
62  ekin = 100 | epot = 0 | etot = 100
63  ekin = 100 | epot = 0 | etot = 100
64  ekin = 100 | epot = 0 | etot = 100
65  ekin = 100 | epot = 0 | etot = 100
66  ekin = 100 | epot = 0 | etot = 100
67  ekin = 100 | epot = 0 | etot = 100
68  ekin = 100 | epot = 0 | etot = 100
69  ekin = 100 | epot = 0 | etot = 100
70  ekin = 100 | epot = 0 | etot = 100
71  ekin = 100 | epot = 0 | etot = 100
72  ekin = 100 | epot = 0 | etot = 100
73  ekin = 100 | epot = 0 | etot = 100
74  ekin = 100 | epot = 0 | etot = 100
75  ekin = 100 | epot = 0 | etot = 100
76  ekin = 100 | epot = 0 | etot = 100
77  ekin = 100 | epot = 0 | etot = 100
78  ekin = 100 | epot = 0 | etot = 100
79  ekin = 100 | epot = 0 | etot = 100
80  ekin = 100 | epot = 0 | etot = 100
81  ekin = 100 | epot = 0 | etot = 100
82  ekin = 100 | epot = 0 | etot = 100
83  ekin = 100 | epot = 0 | etot = 100
84  ekin = 100 | epot = 0 | etot = 100
85  ekin = 100 | epot = 0 | etot = 100
86  ekin = 100 | epot = 0 | etot = 100
87  ekin = 100 | epot = 0 | etot = 100
88  ekin = 100 | epot = 0 | etot = 100
89  ekin = 100 | epot = 0 | etot = 100
90  ekin = 100 | epot = 0 | etot = 100
91  ekin = 100 | epot = 0 | etot = 100
92  ekin = 100 | epot = 0 | etot = 100
93  ekin = 100 | epot = 0 | etot = 100
94  ekin = 100 | epot = 0 | etot = 100
95  ekin = 100 | epot = 0 | etot = 100
96  ekin = 100 | epot = 0 | etot = 100
97  ekin = 100 | epot = 0 | etot = 100
98  ekin = 100 | epot = 0 | etot = 100
99  ekin = 100 | epot = 0 | etot = 100
100  ekin = 100 | epot = 0 | etot = 100
101  ekin = 100 | epot = 0 | etot = 100
102  ekin = 100 | epot = 0 | etot = 100
103  ekin = 100 | epot = 0 | etot = 100
104  ekin = 100 | epot = 0 | etot = 100
105  ekin = 100 | epot = 0 | etot = 100
106  ekin = 100 | epot = 0 | etot = 100
107  ekin = 100 | epot = 0 | etot = 100
108  ekin = 100 | epot = 0 | etot = 100
109  ekin = 100 | epot = 0 | etot = 100
110  ekin = 100 | epot = 0 | etot = 100
111  ekin = 100 | epot = 0 | etot = 100
112  ekin = 100 | epot = 0 | etot = 100
113  ekin = 100 | epot = 0 | etot = 100
114  ekin = 100 | epot = 0 | etot = 100
115  ekin = 100 | epot = 0 | etot = 100
116  ekin = 100 | epot = 0 | etot = 100
117  ekin = 100 | epot = 0 | etot = 100
118  ekin = 100 | epot = 0 | etot = 100
119  ekin = 100 | epot = 0 | etot = 100
120  ekin = 100 | epot = 0 | etot = 100
121  ekin = 100 | epot = 0 | etot = 100
122  ekin = 100 | epot = 0 | etot = 100
123  ekin = 100 | epot = 0 | etot = 100
124  ekin = 100 | epot = 0 | etot = 100
125  ekin = 100 | epot = 0 | etot = 100
126  ekin = 100 | epot = 0 | etot = 100
127  ekin = 100 | epot = 0 | etot = 100
128  ekin = 100 | epot = 0 | etot = 100
129  ekin = 100 | epot = 0 | etot = 100
130  ekin = 100 | epot = 0 | etot = 100
131  ekin = 100 | epot = 0 | etot = 100
132  ekin = 100 | epot = 0 | etot = 100
133  ekin = 100 | epot = 0 | etot = 100
134  ekin = 100 | epot = 0 | etot = 100
135  ekin = 100 | epot = 0 | etot = 100
136  ekin = 100 | epot = 0 | etot = 100
137  ekin = 100 | epot = 0 | etot = 100
138  ekin = 100 | epot = 0 | etot = 100
139  ekin = 100 | epot = 0 | etot = 100
140  ekin = 100 | epot = 0 | etot = 100
141  ekin = 100 | epot = 0 | etot = 100
142  ekin = 100 | epot = 0 | etot = 100
143  ekin = 100 | epot = 0 | etot = 100
144  ekin = 100 | epot = 0 | etot = 100
145  ekin = 100 | epot = 0 | etot = 100
146  ekin = 100 | epot = 0 | etot = 100
147  ekin = 100 | epot = 0 | etot = 100
148  ekin = 100 | epot = 0 | etot = 100
149  ekin = 100 | epot = 0 | etot = 100
150  ekin = 100 | epot = 0 | etot = 100
151  ekin = 100 | epot = 0 | etot = 100
152  ekin = 100 | epot = 0 | etot = 100
153  ekin = 100 | epot = 0 | etot = 100
154  ekin = 100 | epot = 0 | etot = 100
155  ekin = 100 | epot = 0 | etot = 100
156  ekin = 100 | epot = 0 | etot = 100
157  ekin = 100 | epot = 0 | etot = 100
158  ekin = 100 | epot = 0 | etot = 100
159  ekin = 100 | epot = 0 | etot = 100
160  ekin = 100 | epot = 0 | etot = 100
161  ekin = 100 | epot = 0 | etot = 100
162  ekin = 100 | epot = 0 | etot = 100
163  ekin = 100 | epot = 0 | etot = 100
164  ekin = 100 | epot = 0 | etot = 100
165  ekin = 100 | epot = 0 | etot = 100
166  ekin = 100 | epot = 0 | etot = 100
167  ekin = 100 | epot = 0 | etot = 100
168  ekin = 100 | epot = 0 | etot = 100
169  ekin = 100 | epot = 0 | etot = 100
170  ekin = 100 | epot = 0 | etot = 100
171  ekin = 100 | epot = 0 | etot = 100
172  ekin = 100 | epot = 0 | etot = 100
173  ekin = 100 | epot = 0 | etot = 100
174  ekin = 100 | epot = 0 | etot = 100
175  ekin = 100 | epot = 0 | etot = 100
176  ekin = 100 | epot = 0 | etot = 100
177  ekin = 100 | epot = 0 | etot = 100
178  ekin = 100 | epot = 0 | etot = 100
179  ekin = 100 | epot = 0 | etot = 100
180  ekin = 100 | epot = 0 | etot = 100
181  ekin = 100 | epot = 0 | etot = 100
182  ekin = 100 | epot = 0 | etot = 100
183  ekin = 100 | epot = 0 | etot = 100
184  ekin = 100 | epot = 0 | etot = 100
185  ekin = 100 | epot = 0 | etot = 100
186  ekin = 100 | epot = 0 | etot = 100
187  ekin = 100 | epot = 0 | etot = 100
188  ekin = 100 | epot = 0 | etot = 100
189  ekin = 100 | epot = 0 | etot = 100
190  ekin = 100 | epot = 0 | etot = 100
191  ekin = 100 | epot = 0 | etot = 100
192  ekin = 100 | epot = 0 | etot = 100
193  ekin = 100 | epot = 0 | etot = 100
194  ekin = 100 | epot = 0 | etot = 100
195  ekin = 100 | epot = 0 | etot = 100
196  ekin = 100 | epot = 0 | etot = 100
197  ekin = 100 | epot = 0 | etot = 100
198  ekin = 100 | epot = 0 | etot = 100
199  ekin = 100 | epot = 0 | etot = 100
200  ekin = 100 | epot = 0 | etot = 100
201  ekin = 100 | epot = 0 | etot = 100
202  ekin = 100 | epot = 0 | etot = 100
203  ekin = 100 | epot = 0 | etot = 100
204  ekin = 100 | epot = 0 | etot = 100
205  ekin = 100 | epot = 0 | etot = 100
206  ekin = 100 | epot = 0 | etot = 100
207  ekin = 100 | epot = 0 | etot = 100
208  ekin = 100 | epot = 0 | etot = 100
209  ekin = 100 | epot = 0 | etot = 100
210  ekin = 100 | epot = 0 | etot = 100
211  ekin = 100 | epot = 0 | etot = 100
212  ekin = 100 | epot = 0 | etot = 100
213  ekin = 100 | epot = 0 | etot = 100
214  ekin = 100 | epot = 0 | etot = 100
215  ekin = 100 | epot = 0 | etot = 100
216  ekin = 100 | epot = 0 | etot = 100
217  ekin = 100 | epot = 0 | etot = 100
218  ekin = 100 | epot = 0 | etot = 100
219  ekin = 100 | epot = 0 | etot = 100
220  ekin = 100 | epot = 0 | etot = 100
221  ekin = 100 | epot = 0 | etot = 100
222  ekin = 100 | epot = 0 | etot = 100
223  ekin = 100 | epot = 0 | etot = 100
224  ekin = 100 | epot = 0 | etot = 100
225  ekin = 100 | epot = 0 | etot = 100
226  ekin = 100 | epot = 0 | etot = 100
227  ekin = 100 | epot = 0 | etot = 100
228  ekin = 100 | epot = 0 | etot = 100
229  ekin = 100 | epot = 0 | etot = 100
230  ekin = 100 | epot = 0 | etot = 100
231  ekin = 100 | epot = 0 | etot = 100
232  ekin = 100 | epot = 0 | etot = 100
233  ekin = 100 | epot = 0 | etot = 100
234  ekin = 100 | epot = 0 | etot = 100
235  ekin = 100 | epot = 0 | etot = 100
236  ekin = 100 | epot = 0 | etot = 100
237  ekin = 100 | epot = 0 | etot = 100
238  ekin = 100 | epot = 0 | etot = 100
239  ekin = 100 | epot = 0 | etot = 100
240  ekin = 100 | epot = 0 | etot = 100
241  ekin = 100 | epot = 0 | etot = 100
242  ekin = 100 | epot = 0 | etot = 100
243  ekin = 100 | epot = 0 | etot = 100
244  ekin = 100 | epot = 0 | etot = 100
245  ekin = 100 | epot = 0 | etot = 100
246  ekin = 100 | epot = 0 | etot = 100
247  ekin = 100 | epot = 0 | etot = 100
248  ekin = 100 | epot = 0 | etot = 100
249  ekin = 100 | epot = 0 | etot = 100
250  ekin = 100 | epot = 0 | etot = 100
251  ekin = 100 | epot = 0 | etot = 100
252  ekin = 100 | epot = 0 | etot = 100
253  ekin = 100 | epot = 0 | etot = 100
254  ekin = 100 | epot = 0 | etot = 100
255  ekin = 100 | epot = 0 | etot = 100
256  ekin = 100 | epot = 0 | etot = 100
257  ekin = 100 | epot = 0 | etot = 100
258  ekin = 100 | epot = 0 | etot = 100
259  ekin = 100 | epot = 0 | etot = 100
260  ekin = 100 | epot = 0 | etot = 100
261  ekin = 100 | epot = 0 | etot = 100
262  ekin = 100 | epot = 0 | etot = 100
263  ekin = 100 | epot = 0 | etot = 100
264  ekin = 100 | epot = 0 | etot = 100
265  ekin = 100 | epot = 0 | etot = 100
266  ekin = 100 | epot = 0 | etot = 100
267  ekin = 100 | epot = 0 | etot = 100
268  ekin = 100 | epot = 0 | etot = 100
269  ekin = 100 | epot = 0 | etot = 100
270  ekin = 100 | epot = 0 | etot = 100
271  ekin = 100 | epot = 0 | etot = 100
272  ekin = 100 | epot = 0 | etot = 100
273  ekin = 100 | epot = 0 | etot = 100
274  ekin = 100 | epot = 0 | etot = 100
275  ekin = 100 | epot = 0 | etot = 100
276  ekin = 100 | epot = 0 | etot = 100
277  ekin = 100 | epot = 0 | etot = 100
278  ekin = 100 | epot = 0 | etot = 100
279  ekin = 100 | epot = 0 | etot = 100
280  ekin = 100 | epot = 0 | etot = 100
281  ekin = 100 | epot = 0 | etot = 100
282  ekin = 100 | epot = 0 | etot = 100
283  ekin = 100 | epot = 0 | etot = 100
284  ekin = 100 | epot = 0 | etot = 100
285  ekin = 100 | epot = 0 | etot = 100
286  ekin = 100 | epot = 0 | etot = 100
287  ekin = 100 | epot = 0 | etot = 100
288  ekin = 100 | epot = 0 | etot = 100
289  ekin = 100 | epot = 0 | etot = 100
290  ekin = 100 | epot = 0 | etot = 100
291  ekin = 100 | epot = 0 | etot = 100
292  ekin = 100 | epot = 0 | etot = 100
293  ekin = 100 | epot = 0 | etot = 100
294  ekin = 100 | epot = 0 | etot = 100
295  ekin = 100 | epot = 0 | etot = 100
296  ekin = 100 | epot = 0 | etot = 100
297  ekin = 100 | epot = 0 | etot = 100
298  ekin = 100 | epot = 0 | etot = 100
299  ekin = 100 | epot = 0 | etot = 100
300  ekin = 100 | epot = 0 | etot = 100
301  ekin = 100 | epot = 0 | etot = 100
302  ekin = 100 | epot = 0 | etot = 100
303  ekin = 100 | epot = 0 | etot = 100
304  ekin = 100 | epot = 0 | etot = 100
305  ekin = 100 | epot = 0 | etot = 100
306  ekin = 100 | epot = 0 | etot = 100
307  ekin = 100 | epot = 0 | etot = 100
308  ekin = 100 | epot = 0 | etot = 100
309  ekin = 100 | epot = 0 | etot = 100
310  ekin = 100 | epot = 0 | etot = 100
311  ekin = 100 | epot = 0 | etot = 100
312  ekin = 100 | epot = 0 | etot = 100
313  ekin = 100 | epot = 0 | etot = 100
314  ekin = 100 | epot = 0 | etot = 100
315  ekin = 100 | epot = 0 | etot = 100
316  ekin = 100 | epot = 0 | etot = 100
317  ekin = 100 | epot = 0 | etot = 100
318  ekin = 100 | epot = 0 | etot = 100
319  ekin = 100 | epot = 0 | etot = 100
320  ekin = 100 | epot = 0 | etot = 100
321  ekin = 100 | epot = 0 | etot = 100
322  ekin = 100 | epot = 0 | etot = 100
323  ekin = 100 | epot = 0 | etot = 100
324  ekin = 100 | epot = 0 | etot = 100
325  ekin = 100 | epot = 0 | etot = 100
326  ekin = 100 | epot = 0 | etot = 100
327  ekin = 100 | epot = 0 | etot = 100
328  ekin = 100 | epot = 0 | etot = 100
329  ekin = 100 | epot = 0 | etot = 100
330  ekin = 100 | epot = 0 | etot = 100
331  ekin = 100 | epot = 0 | etot = 100
332  ekin = 100 | epot = 0 | etot = 100
333  ekin = 100 | epot = 0 | etot = 100
334  ekin = 100 | epot = 0 | etot = 100
335  ekin = 100 | epot = 0 | etot = 100
336  ekin = 100 | epot = 0 | etot = 100
337  ekin = 100 | epot = 0 | etot = 100
338  ekin = 100 | epot = 0 | etot = 100
339  ekin = 100 | epot = 0 | etot = 100
340  ekin = 100 | epot = 0 | etot = 100
341  ekin = 100 | epot = 0 | etot = 100
342  ekin = 100 | epot = 0 | etot = 100
343  ekin = 100 | epot = 0 | etot = 100
344  ekin = 100 | epot = 0 | etot = 100
345  ekin = 100 | epot = 0 | etot = 100
346  ekin = 100 | epot = 0 | etot = 100
347  ekin = 100 | epot = 0 | etot = 100
348  ekin = 100 | epot = 0 | etot = 100
349  ekin = 100 | epot = 0 | etot = 100
350  ekin = 100 | epot = 0 | etot = 100
351  ekin = 100 | epot = 0 | etot = 100
352  ekin = 100 | epot = 0 | etot = 100
353  ekin = 100 | epot = 0 | etot = 100
354  ekin = 100 | epot = 0 | etot = 100
355  ekin = 100 | epot = 0 | etot = 100
356  ekin = 100 | epot = 0 | etot = 100
357  ekin = 100 | epot = 0 | etot = 100
358  ekin = 100 | epot = 0 | etot = 100
359  ekin = 100 | epot = 0 | etot = 100
360  ekin = 100 | epot = 0 | etot = 100
361  ekin = 100 | epot = 0 | etot = 100
362  ekin = 100 | epot = 0 | etot = 100
363  ekin = 100 | epot = 0 | etot = 100
364  ekin = 100 | epot = 0 | etot = 100
365  ekin = 100 | epot = 0 | etot = 100
366  ekin = 100 | epot = 0 | etot = 100
367  ekin = 100 | epot = 0 | etot = 100
368  ekin = 100 | epot = 0 | etot = 100
369  ekin = 100 | epot = 0 | etot = 100
370  ekin = 100 | epot = 0 | etot = 100
371  ekin = 100 | epot = 0 | etot = 100
372  ekin = 100 | epot = 0 | etot = 100
373  ekin = 100 | epot = 0 | etot = 100
374  ekin = 100 | epot = 0 | etot = 100
375  ekin = 100 | epot = 0 | etot = 100
376  ekin = 100 | epot = 0 | etot = 100
377  ekin = 100 | epot = 0 | etot = 100
378  ekin = 100 | epot = 0 | etot = 100
379  ekin = 100 | epot = 0 | etot = 100
380  ekin = 100 | epot = 0 | etot = 100
381  ekin = 100 | epot = 0 | etot = 100
382  ekin = 100 | epot = 0 | etot = 100
383  ekin = 100 | epot = 0 | etot = 100
384  ekin = 100 | epot = 0 | etot = 100
385  ekin = 100 | epot = 0 | etot = 100
386  ekin = 100 | epot = 0 | etot = 100
387  ekin = 100 | epot = 0 | etot = 100
388  ekin = 100 | epot = 0 | etot = 100
389  ekin = 100 | epot = 0 | etot = 100
390  ekin = 100 | epot = 0 | etot = 100
391  ekin = 100 | epot = 0 | etot = 100
392  ekin = 100 | epot = 0 | etot = 100
393  ekin = 100 | epot = 0 | etot = 100
394  ekin = 100 | epot = 0 | etot = 100
395  ekin = 100 | epot = 0 | etot = 100
396  ekin = 100 | epot = 0 | etot = 100
397  ekin = 100 | epot = 0 | etot = 100
398  ekin = 100 | epot = 0 | etot = 100
399  ekin = 100 | epot = 0 | etot = 100
400  ekin = 100 | epot = 0 | etot = 100
401  ekin = 100 | epot = 0 | etot = 100
402  ekin = 100 | epot = 0 | etot = 100
403  ekin = 100 | epot = 0 | etot = 100
404  ekin = 100 | epot = 0 | etot = 100
405  ekin = 100 | epot = 0 | etot = 100
406  ekin = 100 | epot = 0 | etot = 100
407  ekin = 100 | epot = 0 | etot = 100
408  ekin = 100 | epot = 0 | etot = 100
409  ekin = 100 | epot = 0 | etot = 100
410  ekin = 100 | epot = 0 | etot = 100
411  ekin = 100 | epot = 0 | etot = 100
412  ekin = 100 | epot = 0 | etot = 100
413  ekin = 100 | epot = 0 | etot = 100
414  ekin = 100 | epot = 0 | etot = 100
415  ekin = 100 | epot = 0 | etot = 100
416  ekin = 100 | epot = 0 | etot = 100
417  ekin = 100 | epot = 0 | etot = 100
418  ekin = 100 | epot = 0 | etot = 100
419  ekin = 100 | epot = 0 | etot = 100
420  ekin = 100 | epot = 0 | etot = 100
421  ekin = 100 | epot = 0 | etot = 100
422  ekin = 100 | epot = 0 | etot = 100
423  ekin = 100 | epot = 0 | etot = 100
424  ekin = 100 | epot = 0 | etot = 100
425  ekin = 100 | epot = 0 | etot = 100
426  ekin = 100 | epot = 0 | etot = 100
427  ekin = 100 | epot = 0 | etot = 100
428  ekin = 100 | epot = 0 | etot = 100
429  ekin = 100 | epot = 0 | etot = 100
430  ekin = 100 | epot = 0 | etot = 100
431  ekin = 100 | epot = 0 | etot = 100
432  ekin = 100 | epot = 0 | etot = 100
433  ekin = 100 | epot = 0 | etot = 100
434  ekin = 100 | epot = 0 | etot = 100
435  ekin = 100 | epot = 0 | etot = 100
436  ekin = 100 | epot = 0 | etot = 100
437  ekin = 100 | epot = 0 | etot = 100
438  ekin = 100 | epot = 0 | etot = 100
439  ekin = 100 | epot = 0 | etot = 100
440  ekin = 100 | epot = 0 | etot = 100
441  ekin = 100 | epot = 0 | etot = 100
442  ekin = 100 | epot = 0 | etot = 100
443  ekin = 100 | epot = 0 | etot = 100
444  ekin = 100 | epot = 0 | etot = 100
445  ekin = 100 | epot = 0 | etot = 100
446  ekin = 100 | epot = 0 | etot = 100
447  ekin = 100 | epot = 0 | etot = 100
448  ekin = 100 | epot = 0 | etot = 100
449  ekin = 100 | epot = 0 | etot = 100
450  ekin = 100 | epot = 0 | etot = 100
451  ekin = 100 | epot = 0 | etot = 100
452  ekin = 100 | epot = 0 | etot = 100
453  ekin = 100 | epot = 0 | etot = 100
454  ekin = 100 | epot = 0 | etot = 100
455  ekin = 100 | epot = 0 | etot = 100
456  ekin = 100 | epot = 0 | etot = 100
457  ekin = 100 | epot = 0 | etot = 100
458  ekin = 100 | epot = 0 | etot = 100
459  ekin = 100 | epot = 0 | etot = 100
460  ekin = 100 | epot = 0 | etot = 100
461  ekin = 100 | epot = 0 | etot = 100
462  ekin = 100 | epot = 0 | etot = 100
463  ekin = 100 | epot = 0 | etot = 100
464  ekin = 100 | epot = 0 | etot = 100
465  ekin = 100 | epot = 0 | etot = 100
466  ekin = 100 | epot = 0 | etot = 100
467  ekin = 100 | epot = 0 | etot = 100
468  ekin = 100 | epot = 0 | etot = 100
469  ekin = 100 | epot = 0 | etot = 100
470  ekin = 100 | epot = 0 | etot = 100
471  ekin = 100 | epot = 0 | etot = 100
472  ekin = 100 | epot = 0 | etot = 100
473  ekin = 100 | epot = 0 | etot = 100
474  ekin = 100 | epot = 0 | etot = 100
475  ekin = 100 | epot = 0 | etot = 100
476  ekin = 100 | epot = 0 | etot = 100
477  ekin = 100 | epot = 0 | etot = 100
478  ekin = 100 | epot = 0 | etot = 100
479  ekin = 100 | epot = 0 | etot = 100
480  ekin = 100 | epot = 0 | etot = 100
481  ekin = 100 | epot = 0 | etot = 100
482  ekin = 100 | epot = 0 | etot = 100
483  ekin = 100 | epot = 0 | etot = 100
484  ekin = 100 | epot = 0 | etot = 100
485  ekin = 100 | epot = 0 | etot = 100
486  ekin = 100 | epot = 0 | etot = 100
487  ekin = 100 | epot = 0 | etot = 100
488  ekin = 100 | epot = 0 | etot = 100
489  ekin = 100 | epot = 0 | etot = 100
490  ekin = 100 | epot = 0 | etot = 100
491  ekin = 100 | epot = 0 | etot = 100
492  ekin = 100 | epot = 0 | etot = 100
493  ekin = 100 | epot = 0 | etot = 100
494  ekin = 100 | epot = 0 | etot = 100
495  ekin = 100 | epot = 0 | etot = 100
496  ekin = 100 | epot = 0 | etot = 100
497  ekin = 100 | epot = 0 | etot = 100
498  ekin = 100 | epot = 0 | etot = 100
499  ekin = 100 | epot = 0 | etot = 100
500  ekin = 100 | epot = 0 | etot = 100
501  ekin = 100 | epot = 0 | etot = 100
502  ekin = 100 | epot = 0 | etot = 100
503  ekin = 100 | epot = 0 | etot = 100
504  ekin = 100 | epot = 0 | etot = 100
505  ekin = 100 | epot = 0 | etot = 100
506  ekin = 100 | epot = 0 | etot = 100
507  ekin = 100 | epot = 0 | etot = 100
508  ekin = 100 | epot = 0 | etot = 100
509  ekin = 100 | epot = 0 | etot = 100
510  ekin = 100 | epot = 0 | etot = 100
511  ekin = 100 | epot = 0 | etot = 100
512  ekin = 100 | epot = 0 | etot = 100
513  ekin = 100 | epot = 0 | etot = 100
514  ekin = 100 | epot = 0 | etot = 100
515  ekin = 100 | epot = 0 | etot = 100
516  ekin = 100 | epot = 0 | etot = 100
517  ekin = 100 | epot = 0 | etot = 100
518  ekin = 100 | epot = 0 | etot = 100
519  ekin = 100 | epot = 0 | etot = 100
520  ekin = 100 | epot = 0 | etot = 100
521  ekin = 100 | epot = 0 | etot = 100
522  ekin = 100 | epot = 0 | etot = 100
523  ekin = 100 | epot = 0 | etot = 100
524  ekin = 100 | epot = 0 | etot = 100
525  ekin = 100 | epot = 0 | etot = 100
526  ekin = 100 | epot = 0 | etot = 100
527  ekin = 100 | epot = 0 | etot = 100
528  ekin = 100 | epot = 0 | etot = 100
529  ekin = 100 | epot = 0 | etot = 100
530  ekin = 100 | epot = 0 | etot = 100
531  ekin = 100 | epot = 0 | etot = 100
532  ekin = 100 | epot = 0 | etot = 100
533  ekin = 100 | epot = 0 | etot = 100
534  ekin = 100 | epot = 0 | etot = 100
535  ekin = 100 | epot = 0 | etot = 100
536  ekin = 100 | epot = 0 | etot = 100
537  ekin = 100 | epot = 0 | etot = 100
538  ekin = 100 | epot = 0 | etot = 100
539  ekin = 100 | epot = 0 | etot = 100
540  ekin = 100 | epot = 0 | etot = 100
541  ekin = 100 | epot = 0 | etot = 100
542  ekin = 100 | epot = 0 | etot = 100
543  ekin = 100 | epot = 0 | etot = 100
544  ekin = 100 | epot = 0 | etot = 100
545  ekin = 100 | epot = 0 | etot = 100
546  ekin = 100 | epot = 0 | etot = 100
547  ekin = 100 | epot = 0 | etot = 100
548  ekin = 100 | epot = 0 | etot = 100
549  ekin = 100 | epot = 0 | etot = 100
550  ekin = 100 | epot = 0 | etot = 100
551  ekin = 100 | epot = 0 | etot = 100
552  ekin = 100 | epot = 0 | etot = 100
553  ekin = 100 | epot = 0 | etot = 100
554  ekin = 100 | epot = 0 | etot = 100
555  ekin = 100 | epot = 0 | etot = 100
556  ekin = 100 | epot = 0 | etot = 100
557  ekin = 100 | epot = 0 | etot = 100
558  ekin = 100 | epot = 0 | etot = 100
559  ekin = 100 | epot = 0 | etot = 100
560  ekin = 100 | epot = 0 | etot = 100
561  ekin = 100 | epot = 0 | etot = 100
562  ekin = 100 | epot = 0 | etot = 100
563  ekin = 100 | epot = 0 | etot = 100
564  ekin = 100 | epot = 0 | etot = 100
565  ekin = 100 | epot = 0 | etot = 100
566  ekin = 100 | epot = 0 | etot = 100
567  ekin = 100 | epot = 0 | etot = 100
568  ekin = 100 | epot = 0 | etot = 100
569  ekin = 100 | epot = 0 | etot = 100
570  ekin = 100 | epot = 0 | etot = 100
571  ekin = 100 | epot = 0 | etot = 100
572  ekin = 100 | epot = 0 | etot = 100
573  ekin = 100 | epot = 0 | etot = 100
574  ekin = 100 | epot = 0 | etot = 100
575  ekin = 100 | epot = 0 | etot = 100
576  ekin = 100 | epot = 0 | etot = 100
577  ekin = 100 | epot = 0 | etot = 100
578  ekin = 100 | epot = 0 | etot = 100
579  ekin = 100 | epot = 0 | etot = 100
580  ekin = 100 | epot = 0 | etot = 100
581  ekin = 100 | epot = 0 | etot = 100
582  ekin = 100 | epot = 0 | etot = 100
583  ekin = 100 | epot = 0 | etot = 100
584  ekin = 100 | epot = 0 | etot = 100
585  ekin = 100 | epot = 0 | etot = 100
586  ekin = 100 | epot = 0 | etot = 100
587  ekin = 100 | epot = 0 | etot = 100
588  ekin = 100 | epot = 0 | etot = 100
589  ekin = 100 | epot = 0 | etot = 100
590  ekin = 100 | epot = 0 | etot = 100
591  ekin = 100 | epot = 0 | etot = 100
592  ekin = 100 | epot = 0 | etot = 100
593  ekin = 100 | epot = 0 | etot = 100
594  ekin = 100 | epot = 0 | etot = 100
595  ekin = 100 | epot = 0 | etot = 100
596  ekin = 100 | epot = 0 | etot = 100
597  ekin = 100 | epot = 0 | etot = 100
598  ekin = 100 | epot = 0 | etot = 100
599  ekin = 100 | epot = 0 | etot = 100
600  ekin = 100 | epot = 0 | etot = 100
601  ekin = 100 | epot = 0 | etot = 100
602  ekin = 100 | epot = 0 | etot = 100
603  ekin = 100 | epot = 0 | etot = 100
604  ekin = 100 | epot = 0 | etot = 100
605  ekin = 100 | epot = 0 | etot = 100
606  ekin = 100 | epot = 0 | etot = 100
607  ekin = 100 | epot = 0 | etot = 100
608  ekin = 100 | epot = 0 | etot = 100
609  ekin = 100 | epot = 0 | etot = 100
610  ekin = 100 | epot = 0 | etot = 100
611  ekin = 100 | epot = 0 | etot = 100
612  ekin = 100 | epot = 0 | etot = 100
613  ekin = 100 | epot = 0 | etot = 100
614  ekin = 100 | epot = 0 | etot = 100
615  ekin = 100 | epot = 0 | etot = 100
616  ekin = 100 | epot = 0 | etot = 100
617  ekin = 100 | epot = 0 | etot = 100
618  ekin = 100 | epot = 0 | etot = 100
619  ekin = 100 | epot = 0 | etot = 100
620  ekin = 100 | epot = 0 | etot = 100
621  ekin = 100 | epot = 0 | etot = 100
622  ekin = 100 | epot = 0 | etot = 100
623  ekin = 100 | epot = 0 | etot = 100
624  ekin = 100 | epot = 0 | etot = 100
625  ekin = 100 | epot = 0 | etot = 100
626  ekin = 100 | epot = 0 | etot = 100
627  ekin = 100 | epot = 0 | etot = 100
628  ekin = 100 | epot = 0 | etot = 100
629  ekin = 100 | epot = 0 | etot = 100
630  ekin = 100 | epot = 0 | etot = 100
631  ekin = 100 | epot = 0 | etot = 100
632  ekin = 100 | epot = 0 | etot = 100
633  ekin = 100 | epot = 0 | etot = 100
634  ekin = 100 | epot = 0 | etot = 100
635  ekin = 100 | epot = 0 | etot = 100
636  ekin = 100 | epot = 0 | etot = 100
637  ekin = 100 | epot = 0 | etot = 100
638  ekin = 100 | epot = 0 | etot = 100
639  ekin = 100 | epot = 0 | etot = 100
640  ekin = 100 | epot = 0 | etot = 100
641  ekin = 100 | epot = 0 | etot = 100
642  ekin = 100 | epot = 0 | etot = 100
643  ekin = 100 | epot = 0 | etot = 100
644  ekin = 100 | epot = 0 | etot = 100
645  ekin = 100 | epot = 0 | etot = 100
646  ekin = 100 | epot = 0 | etot = 100
647  ekin = 100 | epot = 0 | etot = 100
648  ekin = 100 | epot = 0 | etot = 100
649  ekin = 100 | epot = 0 | etot = 100
650  ekin = 100 | epot = 0 | etot = 100
651  ekin = 100 | epot = 0 | etot = 100
652  ekin = 100 | epot = 0 | etot = 100
653  ekin = 100 | epot = 0 | etot = 100
654  ekin = 100 | epot = 0 | etot = 100
655  ekin = 100 | epot = 0 | etot = 100
656  ekin = 100 | epot = 0 | etot = 100
657  ekin = 100 | epot = 0 | etot = 100
658  ekin = 100 | epot = 0 | etot = 100
659  ekin = 100 | epot = 0 | etot = 100
660  ekin = 100 | epot = 0 | etot = 100
661  ekin = 100 | epot = 0 | etot = 100
662  ekin = 100 | epot = 0 | etot = 100
663  ekin = 100 | epot = 0 | etot = 100
664  ekin = 100 | epot = 0 | etot = 100
665  ekin = 100 | epot = 0 | etot = 100
666  ekin = 100 | epot = 0 | etot = 100
667  ekin = 100 | epot = 0 | etot = 100
668  ekin = 100 | epot = 0 | etot = 100
669  ekin = 100 | epot = 0 | etot = 100
670  ekin = 100 | epot = 0 | etot = 100
671  ekin = 100 | epot = 0 | etot = 100
672  ekin = 100 | epot = 0 | etot = 100
673  ekin = 100 | epot = 0 | etot = 100
674  ekin = 100 | epot = 0 | etot = 100
675  ekin = 100 | epot = 0 | etot = 100
676  ekin = 100 | epot = 0 | etot = 100
677  ekin = 100 | epot = 0 | etot = 100
678  ekin = 100 | epot = 0 | etot = 100
679  ekin = 100 | epot = 0 | etot = 100
680  ekin = 100 | epot = 0 | etot = 100
681  ekin = 100 | epot = 0 | etot = 100
682  ekin = 100 | epot = 0 | etot = 100
683  ekin = 100 | epot = 0 | etot = 100
684  ekin = 100 | epot = 0 | etot = 100
685  ekin = 100 | epot = 0 | etot = 100
686  ekin = 100 | epot = 0 | etot = 100
687  ekin = 100 | epot = 0 | etot = 100
688  ekin = 100 | epot = 0 | etot = 100
689  ekin = 100 | epot = 0 | etot = 100
690  ekin = 100 | epot = 0 | etot = 100
691  ekin = 100 | epot = 0 | etot = 100
692  ekin = 100 | epot = 0 | etot = 100
693  ekin = 100 | epot = 0 | etot = 100
694  ekin = 100 | epot = 0 | etot = 100
695  ekin = 100 | epot = 0 | etot = 100
696  ekin = 100 | epot = 0 | etot = 100
697  ekin = 100 | epot = 0 | etot = 100
698  ekin = 100 | epot = 0 | etot = 100
699  ekin = 100 | epot = 0 | etot = 100
700  ekin = 100 | epot = 0 | etot = 100
701  ekin = 100 | epot = 0 | etot = 100
702  ekin = 100 | epot = 0 | etot = 100
703  ekin = 100 | epot = 0 | etot = 100
704  ekin = 100 | epot = 0 | etot = 100
705  ekin = 100 | epot = 0 | etot = 100
706  ekin = 100 | epot = 0 | etot = 100
707  ekin = 100 | epot = 0 | etot = 100
708  ekin = 100 | epot = 0 | etot = 100
709  ekin = 100 | epot = 0 | etot = 100
710  ekin = 100 | epot = 0 | etot = 100
711  ekin = 100 | epot = 0 | etot = 100
712  ekin = 100 | epot = 0 | etot = 100
713  ekin = 100 | epot = 0 | etot = 100
714  ekin = 100 | epot = 0 | etot = 100
715  ekin = 100 | epot = 0 | etot = 100
716  ekin = 100 | epot = 0 | etot = 100
717  ekin = 100 | epot = 0 | etot = 100
718  ekin = 100 | epot = 0 | etot = 100
719  ekin = 100 | epot = 0 | etot = 100
720  ekin = 100 | epot = 0 | etot = 100
721  ekin = 100 | epot = 0 | etot = 100
722  ekin = 100 | epot = 0 | etot = 100
723  ekin = 100 | epot = 0 | etot = 100
724  ekin = 100 | epot = 0 | etot = 100
725  ekin = 100 | epot = 0 | etot = 100
726  ekin = 100 | epot = 0 | etot = 100
727  ekin = 100 | epot = 0 | etot = 100
728  ekin = 100 | epot = 0 | etot = 100
729  ekin = 100 | epot = 0 | etot = 100
730  ekin = 100 | epot = 0 | etot = 100
731  ekin = 100 | epot = 0 | etot = 100
732  ekin = 100 | epot = 0 | etot = 100
733  ekin = 100 | epot = 0 | etot = 100
734  ekin = 100 | epot = 0 | etot = 100
735  ekin = 100 | epot = 0 | etot = 100
736  ekin = 100 | epot = 0 | etot = 100
737  ekin = 100 | epot = 0 | etot = 100
738  ekin = 100 | epot = 0 | etot = 100
739  ekin = 100 | epot = 0 | etot = 100
740  ekin = 100 | epot = 0 | etot = 100
741  ekin = 100 | epot = 0 | etot = 100
742  ekin = 100 | epot = 0 | etot = 100
743  ekin = 100 | epot = 0 | etot = 100
744  ekin = 100 | epot = 0 | etot = 100
745  ekin = 100 | epot = 0 | etot = 100
746  ekin = 100 | epot = 0 | etot = 100
747  ekin = 100 | epot = 0 | etot = 100
748  ekin = 100 | epot = 0 | etot = 100
749  ekin = 100 | epot = 0 | etot = 100
750  ekin = 100 | epot = 0 | etot = 100
751  ekin = 100 | epot = 0 | etot = 100
752  ekin = 100 | epot = 0 | etot = 100
753  ekin = 100 | epot = 0 | etot = 100
754  ekin = 100 | epot = 0 | etot = 100
755  ekin = 100 | epot = 0 | etot = 100
756  ekin = 100 | epot = 0 | etot = 100
757  ekin = 100 | epot = 0 | etot = 100
758  ekin = 100 | epot = 0 | etot = 100
759  ekin = 100 | epot = 0 | etot = 100
760  ekin = 100 | epot = 0 | etot = 100
761  ekin = 100 | epot = 0 | etot = 100
762  ekin = 100 | epot = 0 | etot = 100
763  ekin = 100 | epot = 0 | etot = 100
764  ekin = 100 | epot = 0 | etot = 100
765  ekin = 100 | epot = 0 | etot = 100
766  ekin = 100 | epot = 0 | etot = 100
767  ekin = 100 | epot = 0 | etot = 100
768  ekin = 100 | epot = 0 | etot = 100
769  ekin = 100 | epot = 0 | etot = 100
770  ekin = 100 | epot = 0 | etot = 100
771  ekin = 100 | epot = 0 | etot = 100
772  ekin = 100 | epot = 0 | etot = 100
773  ekin = 100 | epot = 0 | etot = 100
774  ekin = 100 | epot = 0 | etot = 100
775  ekin = 100 | epot = 0 | etot = 100
776  ekin = 100 | epot = 0 | etot = 100
777  ekin = 100 | epot = 0 | etot = 100
778  ekin = 100 | epot = 0 | etot = 100
779  ekin = 100 | epot = 0 | etot = 100
780  ekin = 100 | epot = 0 | etot = 100
781  ekin = 100 | epot = 0 | etot = 100
782  ekin = 100 | epot = 0 | etot = 100
783  ekin = 100 | epot = 0 | etot = 100
784  ekin = 100 | epot = 0 | etot = 100
785  ekin = 100 | epot = 0 | etot = 100
786  ekin = 100 | epot = 0 | etot = 100
787  ekin = 100 | epot = 0 | etot = 100
788  ekin = 100 | epot = 0 | etot = 100
789  ekin = 100 | epot = 0 | etot = 100
790  ekin = 100 | epot = 0 | etot = 100
791  ekin = 100 | epot = 0 | etot = 100
792  ekin = 100 | epot = 0 | etot = 100
793  ekin = 100 | epot = 0 | etot = 100
794  ekin = 100 | epot = 0 | etot = 100
795  ekin = 100 | epot = 0 | etot = 100
796  ekin = 100 | epot = 0 | etot = 100
797  ekin = 100 | epot = 0 | etot = 100
798  ekin = 100 | epot = 0 | etot = 100
799  ekin = 100 | epot = 0 | etot = 100
800  ekin = 100 | epot = 0 | etot = 100
801  ekin = 100 | epot = 0 | etot = 100
802  ekin = 100 | epot = 0 | etot = 100
803  ekin = 100 | epot = 0 | etot = 100
804  ekin = 100 | epot = 0 | etot = 100
805  ekin = 100 | epot = 0 | etot = 100
806  ekin = 100 | epot = 0 | etot = 100
807  ekin = 100 | epot = 0 | etot = 100
808  ekin = 100 | epot = 0 | etot = 100
809  ekin = 100 | epot = 0 | etot = 100
810  ekin = 100 | epot = 0 | etot = 100
811  ekin = 100 | epot = 0 | etot = 100
812  ekin = 100 | epot = 0 | etot = 100
813  ekin = 100 | epot = 0 | etot = 100
814  ekin = 100 | epot = 0 | etot = 100
815  ekin = 100 | epot = 0 | etot = 100
816  ekin = 100 | epot = 0 | etot = 100
817  ekin = 100 | epot = 0 | etot = 100
818  ekin = 100 | epot = 0 | etot = 100
819  ekin = 100 | epot = 0 | etot = 100
820  ekin = 100 | epot = 0 | etot = 100
821  ekin = 100 | epot = 0 | etot = 100
822  ekin = 100 | epot = 0 | etot = 100
823  ekin = 100 | epot = 0 | etot = 100
824  ekin = 100 | epot = 0 | etot = 100
825  ekin = 100 | epot = 0 | etot = 100
826  ekin = 100 | epot = 0 | etot = 100
827  ekin = 100 | epot = 0 | etot = 100
828  ekin = 100 | epot = 0 | etot = 100
829  ekin = 100 | epot = 0 | etot = 100
830  ekin = 100 | epot = 0 | etot = 100
831  ekin = 100 | epot = 0 | etot = 100
832  ekin = 100 | epot = 0 | etot = 100
833  ekin = 100 | epot = 0 | etot = 100
834  ekin = 100 | epot = 0 | etot = 100
835  ekin = 100 | epot = 0 | etot = 100
836  ekin = 100 | epot = 0 | etot = 100
837  ekin = 100 | epot = 0 | etot = 100
838  ekin = 100 | epot = 0 | etot = 100
839  ekin = 100 | epot = 0 | etot = 100
840  ekin = 100 | epot = 0 | etot = 100
841  ekin = 100 | epot = 0 | etot = 100
842  ekin = 100 | epot = 0 | etot = 100
843  ekin = 100 | epot = 0 | etot = 100
844  ekin = 100 | epot = 0 | etot = 100
845  ekin = 100 | epot = 0 | etot = 100
846  ekin = 100 | epot = 0 | etot = 100
847  ekin = 100 | epot = 0 | etot = 100
848  ekin = 100 | epot = 0 | etot = 100
849  ekin = 100 | epot = 0 | etot = 100
850  ekin = 100 | epot = 0 | etot = 100
851  ekin = 100 | epot = 0 | etot = 100
852  ekin = 100 | epot = 0 | etot = 100
853  ekin = 100 | epot = 0 | etot = 100
854  ekin = 100 | epot = 0 | etot = 100
855  ekin = 100 | epot = 0 | etot = 100
856  ekin = 100 | epot = 0 | etot = 100
857  ekin = 100 | epot = 0 | etot = 100
858  ekin = 100 | epot = 0 | etot = 100
859  ekin = 100 | epot = 0 | etot = 100
860  ekin = 100 | epot = 0 | etot = 100
861  ekin = 100 | epot = 0 | etot = 100
862  ekin = 100 | epot = 0 | etot = 100
863  ekin = 100 | epot = 0 | etot = 100
864  ekin = 100 | epot = 0 | etot = 100
865  ekin = 100 | epot = 0 | etot = 100
866  ekin = 100 | epot = 0 | etot = 100
867  ekin = 100 | epot = 0 | etot = 100
868  ekin = 100 | epot = 0 | etot = 100
869  ekin = 100 | epot = 0 | etot = 100
870  ekin = 100 | epot = 0 | etot = 100
871  ekin = 100 | epot = 0 | etot = 100
872  ekin = 100 | epot = 0 | etot = 100
873  ekin = 100 | epot = 0 | etot = 100
874  ekin = 100 | epot = 0 | etot = 100
875  ekin = 100 | epot = 0 | etot = 100
876  ekin = 100 | epot = 0 | etot = 100
877  ekin = 100 | epot = 0 | etot = 100
878  ekin = 100 | epot = 0 | etot = 100
879  ekin = 100 | epot = 0 | etot = 100
880  ekin = 100 | epot = 0 | etot = 100
881  ekin = 100 | epot = 0 | etot = 100
882  ekin = 100 | epot = 0 | etot = 100
883  ekin = 100 | epot = 0 | etot = 100
884  ekin = 100 | epot = 0 | etot = 100
885  ekin = 100 | epot = 0 | etot = 100
886  ekin = 100 | epot = 0 | etot = 100
887  ekin = 100 | epot = 0 | etot = 100
888  ekin = 100 | epot = 0 | etot = 100
889  ekin = 100 | epot = 0 | etot = 100
890  ekin = 100 | epot = 0 | etot = 100
891  ekin = 100 | epot = 0 | etot = 100
892  ekin = 100 | epot = 0 | etot = 100
893  ekin = 100 | epot = 0 | etot = 100
894  ekin = 100 | epot = 0 | etot = 100
895  ekin = 100 | epot = 0 | etot = 100
896  ekin = 100 | epot = 0 | etot = 100
897  ekin = 100 | epot = 0 | etot = 100
898  ekin = 100 | epot = 0 | etot = 100
899  ekin = 100 | epot = 0 | etot = 100
900  ekin = 100 | epot = 0 | etot = 100
901  ekin = 100 | epot = 0 | etot = 100
902  ekin = 100 | epot = 0 | etot = 100
903  ekin = 100 | epot = 0 | etot = 100
904  ekin = 100 | epot = 0 | etot = 100
905  ekin = 100 | epot = 0 | etot = 100
906  ekin = 100 | epot = 0 | etot = 100
907  ekin = 100 | epot = 0 | etot = 100
908  ekin = 100 | epot = 0 | etot = 100
909  ekin = 100 | epot = 0 | etot = 100
910  ekin = 100 | epot = 0 | etot = 100
911  ekin = 100 | epot = 0 | etot = 100
912  ekin = 100 | epot = 0 | etot = 100
913  ekin = 100 | epot = 0 | etot = 100
914  ekin = 100 | epot = 0 | etot = 100
915  ekin = 100 | epot = 0 | etot = 100
916  ekin = 100 | epot = 0 | etot = 100
917  ekin = 100 | epot = 0 | etot = 100
918  ekin = 100 | epot = 0 | etot = 100
919  ekin = 100 | epot = 0 | etot = 100
920  ekin = 100 | epot = 0 | etot = 100
921  ekin = 100 | epot = 0 | etot = 100
922  ekin = 100 | epot = 0 | etot = 100
923  ekin = 100 | epot = 0 | etot = 100
924  ekin = 100 | epot = 0 | etot = 100
925  ekin = 100 | epot = 0 | etot = 100
926  ekin = 100 | epot = 0 | etot = 100
927  ekin = 100 | epot = 0 | etot = 100
928  ekin = 100 | epot = 0 | etot = 100
929  ekin = 100 | epot = 0 | etot = 100
930  ekin = 100 | epot = 0 | etot = 100
931  ekin = 100 | epot = 0 | etot = 100
932  ekin = 100 | epot = 0 | etot = 100
933  ekin = 100 | epot = 0 | etot = 100
934  ekin = 100 | epot = 0 | etot = 100
935  ekin = 100 | epot = 0 | etot = 100
936  ekin = 100 | epot = 0 | etot = 100
937  ekin = 100 | epot = 0 | etot = 100
938  ekin = 100 | epot = 0 | etot = 100
939  ekin = 100 | epot = 0 | etot = 100
940  ekin = 100 | epot = 0 | etot = 100
941  ekin = 100 | epot = 0 | etot = 100
942  ekin = 100 | epot = 0 | etot = 100
943  ekin = 100 | epot = 0 | etot = 100
944  ekin = 100 | epot = 0 | etot = 100
945  ekin = 100 | epot = 0 | etot = 100
946  ekin = 100 | epot = 0 | etot = 100
947  ekin = 100 | epot = 0 | etot = 100
948  ekin = 100 | epot = 0 | etot = 100
949  ekin = 100 | epot = 0 | etot = 100
950  ekin = 100 | epot = 0 | etot = 100
951  ekin = 100 | epot = 0 | etot = 100
952  ekin = 100 | epot = 0 | etot = 100
953  ekin = 100 | epot = 0 | etot = 100
954  ekin = 100 | epot = 0 | etot = 100
955  ekin = 100 | epot = 0 | etot = 100
956  ekin = 100 | epot = 0 | etot = 100
957  ekin = 100 | epot = 0 | etot = 100
958  ekin = 100 | epot = 0 | etot = 100
959  ekin = 100 | epot = 0 | etot = 100
960  ekin = 100 | epot = 0 | etot = 100
961  ekin = 100 | epot = 0 | etot = 100
962  ekin = 100 | epot = 0 | etot = 100
963  ekin = 100 | epot = 0 | etot = 100
964  ekin = 100 | epot = 0 | etot = 100
965  ekin = 100 | epot = 0 | etot = 100
966  ekin = 100 | epot = 0 | etot = 100
967  ekin = 100 | epot = 0 | etot = 100
968  ekin = 100 | epot = 0 | etot = 100
969  ekin = 100 | epot = 0 | etot = 100
970  ekin = 100 | epot = 0 | etot = 100
971  ekin = 100 | epot = 0 | etot = 100
972  ekin = 100 | epot = 0 | etot = 100
973  ekin = 100 | epot = 0 | etot = 100
974  ekin = 100 | epot = 0 | etot = 100
975  ekin = 100 | epot = 0 | etot = 100
976  ekin = 100 | epot = 0 | etot = 100
977  ekin = 100 | epot = 0 | etot = 100
978  ekin = 100 | epot = 0 | etot = 100
979  ekin = 100 | epot = 0 | etot = 100
980  ekin = 100 | epot = 0 | etot = 100
981  ekin = 100 | epot = 0 | etot = 100
982  ekin = 100 | epot = 0 | etot = 100
983  ekin = 100 | epot = 0 | etot = 100
984  ekin = 100 | epot = 0 | etot = 100
985  ekin = 100 | epot = 0 | etot = 100
986  ekin = 100 | epot = 0 | etot = 100
987  ekin = 100 | epot = 0 | etot = 100
988  ekin = 100 | epot = 0 | etot = 100
989  ekin = 100 | epot = 0 | etot = 100
990  ekin = 100 | epot = 0 | etot = 100
991  ekin = 100 | epot = 0 | etot = 100
992  ekin = 100 | epot = 0 | etot = 100
993  ekin = 100 | epot = 0 | etot = 100
994  ekin = 100 | epot = 0 | etot = 100
995  ekin = 100 | epot = 0 | etot = 100
996  ekin = 100 | epot = 0 | etot = 100
997  ekin = 100 | epot = 0 | etot = 100
998  ekin = 100 | epot = 0 | etot = 100
999  ekin = 100 | epot = 0 | etot = 100
1000  ekin = 100 | epot = 0 | etot = 100
1001  ekin = 100 | epot = 0 | etot = 100
1002  ekin = 100 | epot = 0 | etot = 100
1003  ekin = 100 | epot = 0 | etot = 100
1004  ekin = 100 | epot = 0 | etot = 100
1005  ekin = 100 | epot = 0 | etot = 100
1006  ekin = 100 | epot = 0 | etot = 100
1007  ekin = 100 | epot = 0 | etot = 100
1008  ekin = 100 | epot = 0 | etot = 100
1009  ekin = 100 | epot = 0 | etot = 100
1010  ekin = 100 | epot = 0 | etot = 100
1011  ekin = 100 | epot = 0 | etot = 100
1012  ekin = 100 | epot = 0 | etot = 100
1013  ekin = 100 | epot = 0 | etot = 100
1014  ekin = 100 | epot = 0 | etot = 100
1015  ekin = 100 | epot = 0 | etot = 100
1016  ekin = 100 | epot = 0 | etot = 100
1017  ekin = 100 | epot = 0 | etot = 100
1018  ekin = 100 | epot = 0 | etot = 100
1019  ekin = 100 | epot = 0 | etot = 100
1020  ekin = 100 | epot = 0 | etot = 100
1021  ekin = 100 | epot = 0 | etot = 100
1022  ekin = 100 | epot = 0 | etot = 100
1023  ekin = 100 | epot = 0 | etot = 100
1024  ekin = 100 | epot = 0 | etot = 100
1025  ekin = 100 | epot = 0 | etot = 100
1026  ekin = 100 | epot = 0 | etot = 100
1027  ekin = 100 | epot = 0 | etot = 100
1028  ekin = 100 | epot = 0 | etot = 100
1029  ekin = 100 | epot = 0 | etot = 100
1030  ekin = 100 | epot = 0 | etot = 100
1031  ekin = 100 | epot = 0 | etot = 100
1032  ekin = 100 | epot = 0 | etot = 100
1033  ekin = 100 | epot = 0 | etot = 100
1034  ekin = 100 | epot = 0 | etot = 100
1035  ekin = 100 | epot = 0 | etot = 100
1036  ekin = 100 | epot = 0 | etot = 100
1037  ekin = 100 | epot = 0 | etot = 100
1038  ekin = 100 | epot = 0 | etot = 100
1039  ekin = 100 | epot = 0 | etot = 100
1040  ekin = 100 | epot = 0 | etot = 100
1041  ekin = 100 | epot = 0 | etot = 100
1042  ekin = 100 | epot = 0 | etot = 100
1043  ekin = 100 | epot = 0 | etot = 100
1044  ekin = 100 | epot = 0 | etot = 100
1045  ekin = 100 | epot = 0 | etot = 100
1046  ekin = 100 | epot = 0 | etot = 100
1047  ekin = 100 | epot = 0 | etot = 100
1048  ekin = 100 | epot = 0 | etot = 100
1049  ekin = 100 | epot = 0 | etot = 100
1050  ekin = 100 | epot = 0 | etot = 100
1051  ekin = 100 | epot = 0 | etot = 100
1052  ekin = 100 | epot = 0 | etot = 100
1053  ekin = 100 | epot = 0 | etot = 100
1054  ekin = 100 | epot = 0 | etot = 100
1055  ekin = 100 | epot = 0 | etot = 100
1056  ekin = 100 | epot = 0 | etot = 100
1057  ekin = 100 | epot = 0 | etot = 100
1058  ekin = 100 | epot = 0 | etot = 100
1059  ekin = 100 | epot = 0 | etot = 100
1060  ekin = 100 | epot = 0 | etot = 100
1061  ekin = 100 | epot = 0 | etot = 100
1062  ekin = 100 | epot = 0 | etot = 100
1063  ekin = 100 | epot = 0 | etot = 100
1064  ekin = 100 | epot = 0 | etot = 100
1065  ekin = 100 | epot = 0 | etot = 100
1066  ekin = 100 | epot = 0 | etot = 100
1067  ekin = 100 | epot = 0 | etot = 100
1068  ekin = 100 | epot = 0 | etot = 100
1069  ekin = 100 | epot = 0 | etot = 100
1070  ekin = 100 | epot = 0 | etot = 100
1071  ekin = 100 | epot = 0 | etot = 100
1072  ekin = 100 | epot = 0 | etot = 100
1073  ekin = 100 | epot = 0 | etot = 100
1074  ekin = 100 | epot = 0 | etot = 100
1075  ekin = 100 | epot = 0 | etot = 100
1076  ekin = 100 | epot = 0 | etot = 100
1077  ekin = 100 | epot = 0 | etot = 100
1078  ekin = 100 | epot = 0 | etot = 100
1079  ekin = 100 | epot = 0 | etot = 100
1080  ekin = 100 | epot = 0 | etot = 100
1081  ekin = 100 | epot = 0 | etot = 100
1082  ekin = 100 | epot = 0 | etot = 100
1083  ekin = 100 | epot = 0 | etot = 100
1084  ekin = 100 | epot = 0 | etot = 100
1085  ekin = 100 | epot = 0 | etot = 100
1086  ekin = 100 | epot = 0 | etot = 100
1087  ekin = 100 | epot = 0 | etot = 100
1088  ekin = 100 | epot = 0 | etot = 100
1089  ekin = 100 | epot = 0 | etot = 100
1090  ekin = 100 | epot = 0 | etot = 100
1091  ekin = 100 | epot = 0 | etot = 100
1092  ekin = 100 | epot = 0 | etot = 100
1093  ekin = 100 | epot = 0 | etot = 100
1094  ekin = 100 | epot = 0 | etot = 100
1095  ekin = 100 | epot = 0 | etot = 100
1096  ekin = 100 | epot = 0 | etot = 100
1097  ekin = 100 | epot = 0 | etot = 100
1098  ekin = 100 | epot = 0 | etot = 100
1099  ekin = 100 | epot = 0 | etot = 100
1100  ekin = 100 | epot = 0 | etot = 100
1101  ekin = 100 | epot = 0 | etot = 100
1102  ekin = 100 | epot = 0 | etot = 100
1103  ekin = 100 | epot = 0 | etot = 100
1104  ekin = 100 | epot = 0 | etot = 100
1105  ekin = 100 | epot = 0 | etot = 100
1106  ekin = 100 | epot = 0 | etot = 100
1107  ekin = 100 | epot = 0 | etot = 100
1108  ekin = 100 | epot = 0 | etot = 100
1109  ekin = 100 | epot = 0 | etot = 100
1110  ekin = 100 | epot = 0 | etot = 100
1111  ekin = 100 | epot = 0 | etot = 100
1112  ekin = 100 | epot = 0 | etot = 100
1113  ekin = 100 | epot = 0 | etot = 100
1114  ekin = 100 | epot = 0 | etot = 100
1115  ekin = 100 | epot = 0 | etot = 100
1116  ekin = 100 | epot = 0 | etot = 100
1117  ekin = 100 | epot = 0 | etot = 100
1118  ekin = 100 | epot = 0 | etot = 100
1119  ekin = 100 | epot = 0 | etot = 100
1120  ekin = 100 | epot = 0 | etot = 100
1121  ekin = 100 | epot = 0 | etot = 100
1122  ekin = 100 | epot = 0 | etot = 100
1123  ekin = 100 | epot = 0 | etot = 100
1124  ekin = 100 | epot = 0 | etot = 100
1125  ekin = 100 | epot = 0 | etot = 100
1126  ekin = 100 | epot = 0 | etot = 100
1127  ekin = 100 | epot = 0 | etot = 100
1128  ekin = 100 | epot = 0 | etot = 100
1129  ekin = 100 | epot = 0 | etot = 100
1130  ekin = 100 | epot = 0 | etot = 100
1131  ekin = 100 | epot = 0 | etot = 100
1132  ekin = 100 | epot = 0 | etot = 100
1133  ekin = 100 | epot = 0 | etot = 100
1134  ekin = 100 | epot = 0 | etot = 100
1135  ekin = 100 | epot = 0 | etot = 100
1136  ekin = 100 | epot = 0 | etot = 100
1137  ekin = 100 | epot = 0 | etot = 100
1138  ekin = 100 | epot = 0 | etot = 100
1139  ekin = 100 | epot = 0 | etot = 100
1140  ekin = 100 | epot = 0 | etot = 100
1141  ekin = 100 | epot = 0 | etot = 100
1142  ekin = 100 | epot = 0 | etot = 100
1143  ekin = 100 | epot = 0 | etot = 100
1144  ekin = 100 | epot = 0 | etot = 100
1145  ekin = 100 | epot = 0 | etot = 100
1146  ekin = 100 | epot = 0 | etot = 100
1147  ekin = 100 | epot = 0 | etot = 100
1148  ekin = 100 | epot = 0 | etot = 100
1149  ekin = 100 | epot = 0 | etot = 100
1150  ekin = 100 | epot = 0 | etot = 100
1151  ekin = 100 | epot = 0 | etot = 100
1152  ekin = 100 | epot = 0 | etot = 100
1153  ekin = 100 | epot = 0 | etot = 100
1154  ekin = 100 | epot = 0 | etot = 100
1155  ekin = 100 | epot = 0 | etot = 100
1156  ekin = 100 | epot = 0 | etot = 100
1157  ekin = 100 | epot = 0 | etot = 100
1158  ekin = 100 | epot = 0 | etot = 100
1159  ekin = 100 | epot = 0 | etot = 100
1160  ekin = 100 | epot = 0 | etot = 100
1161  ekin = 100 | epot = 0 | etot = 100
1162  ekin = 100 | epot = 0 | etot = 100
1163  ekin = 100 | epot = 0 | etot = 100
1164  ekin = 100 | epot = 0 | etot = 100
1165  ekin = 100 | epot = 0 | etot = 100
1166  ekin = 100 | epot = 0 | etot = 100
1167  ekin = 100 | epot = 0 | etot = 100
1168  ekin = 100 | epot = 0 | etot = 100
1169  ekin = 100 | epot = 0 | etot = 100
1170  ekin = 100 | epot = 0 | etot = 100
1171  ekin = 100 | epot = 0 | etot = 100
1172  ekin = 100 | epot = 0 | etot = 100
1173  ekin = 100 | epot = 0 | etot = 100
1174  ekin = 100 | epot = 0 | etot = 100
1175  ekin = 100 | epot = 0 | etot = 100
1176  ekin = 100 | epot = 0 | etot = 100
1177  ekin = 100 | epot = 0 | etot = 100
1178  ekin = 100 | epot = 0 | etot = 100
1179  ekin = 100 | epot = 0 | etot = 100
1180  ekin = 100 | epot = 0 | etot = 100
1181  ekin = 100 | epot = 0 | etot = 100
1182  ekin = 100 | epot = 0 | etot = 100
1183  ekin = 100 | epot = 0 | etot = 100
1184  ekin = 100 | epot = 0 | etot = 100
1185  ekin = 100 | epot = 0 | etot = 100
1186  ekin = 100 | epot = 0 | etot = 100
1187  ekin = 100 | epot = 0 | etot = 100
1188  ekin = 100 | epot = 0 | etot = 100
1189  ekin = 100 | epot = 0 | etot = 100
1190  ekin = 100 | epot = 0 | etot = 100
1191  ekin = 100 | epot = 0 | etot = 100
1192  ekin = 100 | epot = 0 | etot = 100
1193  ekin = 100 | epot = 0 | etot = 100
1194  ekin = 100 | epot = 0 | etot = 100
1195  ekin = 100 | epot = 0 | etot = 100
1196  ekin = 100 | epot = 0 | etot = 100
1197  ekin = 100 | epot = 0 | etot = 100
1198  ekin = 100 | epot = 0 | etot = 100
1199  ekin = 100 | epot = 0 | etot = 100
1200  ekin = 100 | epot = 0 | etot = 100
1201  ekin = 100 | epot = 0 | etot = 100
1202  ekin = 100 | epot = 0 | etot = 100
1203  ekin = 100 | epot = 0 | etot = 100
1204  ekin = 100 | epot = 0 | etot = 100
1205  ekin = 100 | epot = 0 | etot = 100
1206  ekin = 100 | epot = 0 | etot = 100
1207  ekin = 100 | epot = 0 | etot = 100
1208  ekin = 100 | epot = 0 | etot = 100
1209  ekin = 100 | epot = 0 | etot = 100
1210  ekin = 100 | epot = 0 | etot = 100
1211  ekin = 100 | epot = 0 | etot = 100
1212  ekin = 100 | epot = 0 | etot = 100
1213  ekin = 100 | epot = 0 | etot = 100
1214  ekin = 100 | epot = 0 | etot = 100
1215  ekin = 100 | epot = 0 | etot = 100
1216  ekin = 100 | epot = 0 | etot = 100
1217  ekin = 100 | epot = 0 | etot = 100
1218  ekin = 100 | epot = 0 | etot = 100
1219  ekin = 100 | epot = 0 | etot = 100
1220  ekin = 100 | epot = 0 | etot = 100
1221  ekin = 100 | epot = 0 | etot = 100
1222  ekin = 100 | epot = 0 | etot = 100
1223  ekin = 100 | epot = 0 | etot = 100
1224  ekin = 100 | epot = 0 | etot = 100
1225  ekin = 100 | epot = 0 | etot = 100
1226  ekin = 100 | epot = 0 | etot = 100
1227  ekin = 100 | epot = 0 | etot = 100
1228  ekin = 100 | epot = 0 | etot = 100
1229  ekin = 100 | epot = 0 | etot = 100
1230  ekin = 100 | epot = 0 | etot = 100
1231  ekin = 100 | epot = 0 | etot = 100
1232  ekin = 100 | epot = 0 | etot = 100
1233  ekin = 100 | epot = 0 | etot = 100
1234  ekin = 100 | epot = 0 | etot = 100
1235  ekin = 100 | epot = 0 | etot = 100
1236  ekin = 100 | epot = 0 | etot = 100
1237  ekin = 100 | epot = 0 | etot = 100
1238  ekin = 100 | epot = 0 | etot = 100
1239  ekin = 100 | epot = 0 | etot = 100
1240  ekin = 100 | epot = 0 | etot = 100
1241  ekin = 100 | epot = 0 | etot = 100
1242  ekin = 100 | epot = 0 | etot = 100
1243  ekin = 100 | epot = 0 | etot = 100
1244  ekin = 100 | epot = 0 | etot = 100
1245  ekin = 100 | epot = 0 | etot = 100
1246  ekin = 100 | epot = 0 | etot = 100
1247  ekin = 100 | epot = 0 | etot = 100
1248  ekin = 100 | epot = 0 | etot = 100
1249  ekin = 100 | epot = 0 | etot = 100
1250  ekin = 100 | epot = 0 | etot = 100
1251  ekin = 100 | epot = 0 | etot = 100
1252  ekin = 100 | epot = 0 | etot = 100
1253  ekin = 100 | epot = 0 | etot = 100
1254  ekin = 100 | epot = 0 | etot = 100
1255  ekin = 100 | epot = 0 | etot = 100
1256  ekin = 100 | epot = 0 | etot = 100
1257  ekin = 100 | epot = 0 | etot = 100
1258  ekin = 100 | epot = 0 | etot = 100
1259  ekin = 100 | epot = 0 | etot = 100
1260  ekin = 100 | epot = 0 | etot = 100
1261  ekin = 100 | epot = 0 | etot = 100
1262  ekin = 100 | epot = 0 | etot = 100
1263  ekin = 100 | epot = 0 | etot = 100
1264  ekin = 100 | epot = 0 | etot = 100
1265  ekin = 100 | epot = 0 | etot = 100
1266  ekin = 100 | epot = 0 | etot = 100
1267  ekin = 100 | epot = 0 | etot = 100
1268  ekin = 100 | epot = 0 | etot = 100
1269  ekin = 100 | epot = 0 | etot = 100
1270  ekin = 100 | epot = 0 | etot = 100
1271  ekin = 100 | epot = 0 | etot = 100
1272  ekin = 100 | epot = 0 | etot = 100
1273  ekin = 100 | epot = 0 | etot = 100
1274  ekin = 100 | epot = 0 | etot = 100
1275  ekin = 100 | epot = 0 | etot = 100
1276  ekin = 100 | epot = 0 | etot = 100
1277  ekin = 100 | epot = 0 | etot = 100
1278  ekin = 100 | epot = 0 | etot = 100
1279  ekin = 100 | epot = 0 | etot = 100
1280  ekin = 100 | epot = 0 | etot = 100
1281  ekin = 100 | epot = 0 | etot = 100
1282  ekin = 100 | epot = 0 | etot = 100
1283  ekin = 100 | epot = 0 | etot = 100
1284  ekin = 100 | epot = 0 | etot = 100
1285  ekin = 100 | epot = 0 | etot = 100
1286  ekin = 100 | epot = 0 | etot = 100
1287  ekin = 100 | epot = 0 | etot = 100
1288  ekin = 100 | epot = 0 | etot = 100
1289  ekin = 100 | epot = 0 | etot = 100
1290  ekin = 100 | epot = 0 | etot = 100
1291  ekin = 100 | epot = 0 | etot = 100
1292  ekin = 100 | epot = 0 | etot = 100
1293  ekin = 100 | epot = 0 | etot = 100
1294  ekin = 100 | epot = 0 | etot = 100
1295  ekin = 100 | epot = 0 | etot = 100
1296  ekin = 100 | epot = 0 | etot = 100
1297  ekin = 100 | epot = 0 | etot = 100
1298  ekin = 100 | epot = 0 | etot = 100
1299  ekin = 100 | epot = 0 | etot = 100
1300  ekin = 100 | epot = 0 | etot = 100
1301  ekin = 100 | epot = 0 | etot = 100
1302  ekin = 100 | epot = 0 | etot = 100
1303  ekin = 100 | epot = 0 | etot = 100
1304  ekin = 100 | epot = 0 | etot = 100
1305  ekin = 100 | epot = 0 | etot = 100
1306  ekin = 100 | epot = 0 | etot = 100
1307  ekin = 100 | epot = 0 | etot = 100
1308  ekin = 100 | epot = 0 | etot = 100
1309  ekin = 100 | epot = 0 | etot = 100
1310  ekin = 100 | epot = 0 | etot = 100
1311  ekin = 100 | epot = 0 | etot = 100
1312  ekin = 100 | epot = 0 | etot = 100
1313  ekin = 100 | epot = 0 | etot = 100
1314  ekin = 100 | epot = 0 | etot = 100
1315  ekin = 100 | epot = 0 | etot = 100
1316  ekin = 100 | epot = 0 | etot = 100
1317  ekin = 100 | epot = 0 | etot = 100
1318  ekin = 100 | epot = 0 | etot = 100
1319  ekin = 100 | epot = 0 | etot = 100
1320  ekin = 100 | epot = 0 | etot = 100
1321  ekin = 100 | epot = 0 | etot = 100
1322  ekin = 100 | epot = 0 | etot = 100
1323  ekin = 100 | epot = 0 | etot = 100
1324  ekin = 100 | epot = 0 | etot = 100
1325  ekin = 100 | epot = 0 | etot = 100
1326  ekin = 100 | epot = 0 | etot = 100
1327  ekin = 100 | epot = 0 | etot = 100
1328  ekin = 100 | epot = 0 | etot = 100
1329  ekin = 100 | epot = 0 | etot = 100
1330  ekin = 100 | epot = 0 | etot = 100
1331  ekin = 100 | epot = 0 | etot = 100
1332  ekin = 100 | epot = 0 | etot = 100
1333  ekin = 100 | epot = 0 | etot = 100
1334  ekin = 100 | epot = 0 | etot = 100
1335  ekin = 100 | epot = 0 | etot = 100
1336  ekin = 100 | epot = 0 | etot = 100
1337  ekin = 100 | epot = 0 | etot = 100
1338  ekin = 100 | epot = 0 | etot = 100
1339  ekin = 100 | epot = 0 | etot = 100
1340  ekin = 100 | epot = 0 | etot = 100
1341  ekin = 100 | epot = 0 | etot = 100
1342  ekin = 100 | epot = 0 | etot = 100
1343  ekin = 100 | epot = 0 | etot = 100
1344  ekin = 100 | epot = 0 | etot = 100
1345  ekin = 100 | epot = 0 | etot = 100
1346  ekin = 100 | epot = 0 | etot = 100
1347  ekin = 100 | epot = 0 | etot = 100
1348  ekin = 100 | epot = 0 | etot = 100
1349  ekin = 100 | epot = 0 | etot = 100
1350  ekin = 100 | epot = 0 | etot = 100
1351  ekin = 100 | epot = 0 | etot = 100
1352  ekin = 100 | epot = 0 | etot = 100
1353  ekin = 100 | epot = 0 | etot = 100
1354  ekin = 100 | epot = 0 | etot = 100
1355  ekin = 100 | epot = 0 | etot = 100
1356  ekin = 100 | epot = 0 | etot = 100
1357  ekin = 100 | epot = 0 | etot = 100
1358  ekin = 100 | epot = 0 | etot = 100
1359  ekin = 100 | epot = 0 | etot = 100
1360  ekin = 100 | epot = 0 | etot = 100
1361  ekin = 100 | epot = 0 | etot = 100
1362  ekin = 100 | epot = 0 | etot = 100
1363  ekin = 100 | epot = 0 | etot = 100
1364  ekin = 100 | epot = 0 | etot = 100
1365  ekin = 100 | epot = 0 | etot = 100
1366  ekin = 100 | epot = 0 | etot = 100
1367  ekin = 100 | epot = 0 | etot = 100
1368  ekin = 100 | epot = 0 | etot = 100
1369  ekin = 100 | epot = 0 | etot = 100
1370  ekin = 100 | epot = 0 | etot = 100
1371  ekin = 100 | epot = 0 | etot = 100
1372  ekin = 100 | epot = 0 | etot = 100
1373  ekin = 100 | epot = 0 | etot = 100
1374  ekin = 100 | epot = 0 | etot = 100
1375  ekin = 100 | epot = 0 | etot = 100
1376  ekin = 100 | epot = 0 | etot = 100
1377  ekin = 100 | epot = 0 | etot = 100
1378  ekin = 100 | epot = 0 | etot = 100
1379  ekin = 100 | epot = 0 | etot = 100
1380  ekin = 100 | epot = 0 | etot = 100
1381  ekin = 100 | epot = 0 | etot = 100
1382  ekin = 100 | epot = 0 | etot = 100
1383  ekin = 100 | epot = 0 | etot = 100
1384  ekin = 100 | epot = 0 | etot = 100
1385  ekin = 100 | epot = 0 | etot = 100
1386  ekin = 100 | epot = 0 | etot = 100
1387  ekin = 100 | epot = 0 | etot = 100
1388  ekin = 100 | epot = 0 | etot = 100
1389  ekin = 100 | epot = 0 | etot = 100
1390  ekin = 100 | epot = 0 | etot = 100
1391  ekin = 100 | epot = 0 | etot = 100
1392  ekin = 100 | epot = 0 | etot = 100
1393  ekin = 100 | epot = 0 | etot = 100
1394  ekin = 100 | epot = 0 | etot = 100
1395  ekin = 100 | epot = 0 | etot = 100
1396  ekin = 100 | epot = 0 | etot = 100
1397  ekin = 100 | epot = 0 | etot = 100
1398  ekin = 100 | epot = 0 | etot = 100
1399  ekin = 100 | epot = 0 | etot = 100
1400  ekin = 100 | epot = 0 | etot = 100
1401  ekin = 100 | epot = 0 | etot = 100
1402  ekin = 100 | epot = 0 | etot = 100
1403  ekin = 100 | epot = 0 | etot = 100
1404  ekin = 100 | epot = 0 | etot = 100
1405  ekin = 100 | epot = 0 | etot = 100
1406  ekin = 100 | epot = 0 | etot = 100
1407  ekin = 100 | epot = 0 | etot = 100
1408  ekin = 100 | epot = 0 | etot = 100
1409  ekin = 100 | epot = 0 | etot = 100
1410  ekin = 100 | epot = 0 | etot = 100
1411  ekin = 100 | epot = 0 | etot = 100
1412  ekin = 100 | epot = 0 | etot = 100
1413  ekin = 100 | epot = 0 | etot = 100
1414  ekin = 100 | epot = 0 | etot = 100
1415  ekin = 100 | epot = 0 | etot = 100
1416  ekin = 100 | epot = 0 | etot = 100
1417  ekin = 100 | epot = 0 | etot = 100
1418  ekin = 100 | epot = 0 | etot = 100
1419  ekin = 100 | epot = 0 | etot = 100
1420  ekin = 100 | epot = 0 | etot = 100
1421  ekin = 100 | epot = 0 | etot = 100
1422  ekin = 100 | epot = 0 | etot = 100
1423  ekin = 100 | epot = 0 | etot = 100
1424  ekin = 100 | epot = 0 | etot = 100
1425  ekin = 100 | epot = 0 | etot = 100
1426  ekin = 100 | epot = 0 | etot = 100
1427  ekin = 100 | epot = 0 | etot = 100
1428  ekin = 100 | epot = 0 | etot = 100
1429  ekin = 100 | epot = 0 | etot = 100
1430  ekin = 100 | epot = 0 | etot = 100
1431  ekin = 100 | epot = 0 | etot = 100
1432  ekin = 100 | epot = 0 | etot = 100
1433  ekin = 100 | epot = 0 | etot = 100
1434  ekin = 100 | epot = 0 | etot = 100
1435  ekin = 100 | epot = 0 | etot = 100
1436  ekin = 100 | epot = 0 | etot = 100
1437  ekin = 100 | epot = 0 | etot = 100
1438  ekin = 100 | epot = 0 | etot = 100
1439  ekin = 100 | epot = 0 | etot = 100
1440  ekin = 100 | epot = 0 | etot = 100
1441  ekin = 100 | epot = 0 | etot = 100
1442  ekin = 100 | epot = 0 | etot = 100
1443  ekin = 100 | epot = 0 | etot = 100
1444  ekin = 100 | epot = 0 | etot = 100
1445  ekin = 100 | epot = 0 | etot = 100
1446  ekin = 100 | epot = 0 | etot = 100
1447  ekin = 100 | epot = 0 | etot = 100
1448  ekin = 100 | epot = 0 | etot = 100
1449  ekin = 100 | epot = 0 | etot = 100
1450  ekin = 100 | epot = 0 | etot = 100
1451  ekin = 100 | epot = 0 | etot = 100
1452  ekin = 100 | epot = 0 | etot = 100
1453  ekin = 100 | epot = 0 | etot = 100
1454  ekin = 100 | epot = 0 | etot = 100
1455  ekin = 100 | epot = 0 | etot = 100
1456  ekin = 100 | epot = 0 | etot = 100
1457  ekin = 100 | epot = 0 | etot = 100
1458  ekin = 100 | epot = 0 | etot = 100
1459  ekin = 100 | epot = 0 | etot = 100
1460  ekin = 100 | epot = 0 | etot = 100
1461  ekin = 100 | epot = 0 | etot = 100
1462  ekin = 100 | epot = 0 | etot = 100
1463  ekin = 100 | epot = 0 | etot = 100
1464  ekin = 100 | epot = 0 | etot = 100
1465  ekin = 100 | epot = 0 | etot = 100
1466  ekin = 100 | epot = 0 | etot = 100
1467  ekin = 100 | epot = 0 | etot = 100
1468  ekin = 100 | epot = 0 | etot = 100
1469  ekin = 100 | epot = 0 | etot = 100
1470  ekin = 100 | epot = 0 | etot = 100
1471  ekin = 100 | epot = 0 | etot = 100
1472  ekin = 100 | epot = 0 | etot = 100
1473  ekin = 100 | epot = 0 | etot = 100
1474  ekin = 100 | epot = 0 | etot = 100
1475  ekin = 100 | epot = 0 | etot = 100
1476  ekin = 100 | epot = 0 | etot = 100
1477  ekin = 100 | epot = 0 | etot = 100
1478  ekin = 100 | epot = 0 | etot = 100
1479  ekin = 100 | epot = 0 | etot = 100
1480  ekin = 100 | epot = 0 | etot = 100
1481  ekin = 100 | epot = 0 | etot = 100
1482  ekin = 100 | epot = 0 | etot = 100
1483  ekin = 100 | epot = 0 | etot = 100
1484  ekin = 100 | epot = 0 | etot = 100
1485  ekin = 100 | epot = 0 | etot = 100
1486  ekin = 100 | epot = 0 | etot = 100
1487  ekin = 100 | epot = 0 | etot = 100
1488  ekin = 100 | epot = 0 | etot = 100
1489  ekin = 100 | epot = 0 | etot = 100
1490  ekin = 100 | epot = 0 | etot = 100
1491  ekin = 100 | epot = 0 | etot = 100
1492  ekin = 100 | epot = 0 | etot = 100
1493  ekin = 100 | epot = 0 | etot = 100
1494  ekin = 100 | epot = 0 | etot = 100
1495  ekin = 100 | epot = 0 | etot = 100
1496  ekin = 100 | epot = 0 | etot = 100
1497  ekin = 100 | epot = 0 | etot = 100
1498  ekin = 100 | epot = 0 | etot = 100
1499  ekin = 100 | epot = 0 | etot = 100
1500  ekin = 100 | epot = 0 | etot = 100
1501  ekin = 100 | epot = 0 | etot = 100
1502  ekin = 100 | epot = 0 | etot = 100
1503  ekin = 100 | epot = 0 | etot = 100
1504  ekin = 100 | epot = 0 | etot = 100
1505  ekin = 100 | epot = 0 | etot = 100
1506  ekin = 100 | epot = 0 | etot = 100
1507  ekin = 100 | epot = 0 | etot = 100
1508  ekin = 100 | epot = 0 | etot = 100
1509  ekin = 100 | epot = 0 | etot = 100
1510  ekin = 100 | epot = 0 | etot = 100
1511  ekin = 100 | epot = 0 | etot = 100
1512  ekin = 100 | epot = 0 | etot = 100
1513  ekin = 100 | epot = 0 | etot = 100
1514  ekin = 100 | epot = 0 | etot = 100
1515  ekin = 100 | epot = 0 | etot = 100
1516  ekin = 100 | epot = 0 | etot = 100
1517  ekin = 100 | epot = 0 | etot = 100
1518  ekin = 100 | epot = 0 | etot = 100
1519  ekin = 100 | epot = 0 | etot = 100
1520  ekin = 100 | epot = 0 | etot = 100
1521  ekin = 100 | epot = 0 | etot = 100
1522  ekin = 100 | epot = 0 | etot = 100
1523  ekin = 100 | epot = 0 | etot = 100
1524  ekin = 100 | epot = 0 | etot = 100
1525  ekin = 100 | epot = 0 | etot = 100
1526  ekin = 100 | epot = 0 | etot = 100
1527  ekin = 100 | epot = 0 | etot = 100
1528  ekin = 100 | epot = 0 | etot = 100
1529  ekin = 100 | epot = 0 | etot = 100
1530  ekin = 100 | epot = 0 | etot = 100
1531  ekin = 100 | epot = 0 | etot = 100
1532  ekin = 100 | epot = 0 | etot = 100
1533  ekin = 100 | epot = 0 | etot = 100
1534  ekin = 100 | epot = 0 | etot = 100
1535  ekin = 100 | epot = 0 | etot = 100
1536  ekin = 100 | epot = 0 | etot = 100
1537  ekin = 100 | epot = 0 | etot = 100
1538  ekin = 100 | epot = 0 | etot = 100
1539  ekin = 100 | epot = 0 | etot = 100
1540  ekin = 100 | epot = 0 | etot = 100
1541  ekin = 100 | epot = 0 | etot = 100
1542  ekin = 100 | epot = 0 | etot = 100
1543  ekin = 100 | epot = 0 | etot = 100
1544  ekin = 100 | epot = 0 | etot = 100
1545  ekin = 100 | epot = 0 | etot = 100
1546  ekin = 100 | epot = 0 | etot = 100
1547  ekin = 100 | epot = 0 | etot = 100
1548  ekin = 100 | epot = 0 | etot = 100
1549  ekin = 100 | epot = 0 | etot = 100
1550  ekin = 100 | epot = 0 | etot = 100
1551  ekin = 100 | epot = 0 | etot = 100
1552  ekin = 100 | epot = 0 | etot = 100
1553  ekin = 100 | epot = 0 | etot = 100
1554  ekin = 100 | epot = 0 | etot = 100
1555  ekin = 100 | epot = 0 | etot = 100
1556  ekin = 100 | epot = 0 | etot = 100
1557  ekin = 100 | epot = 0 | etot = 100
1558  ekin = 100 | epot = 0 | etot = 100
1559  ekin = 100 | epot = 0 | etot = 100
1560  ekin = 100 | epot = 0 | etot = 100
1561  ekin = 100 | epot = 0 | etot = 100
1562  ekin = 100 | epot = 0 | etot = 100
1563  ekin = 100 | epot = 0 | etot = 100
1564  ekin = 100 | epot = 0 | etot = 100
1565  ekin = 100 | epot = 0 | etot = 100
1566  ekin = 100 | epot = 0 | etot = 100
1567  ekin = 100 | epot = 0 | etot = 100
1568  ekin = 100 | epot = 0 | etot = 100
1569  ekin = 100 | epot = 0 | etot = 100
1570  ekin = 100 | epot = 0 | etot = 100
1571  ekin = 100 | epot = 0 | etot = 100
1572  ekin = 100 | epot = 0 | etot = 100
1573  ekin = 100 | epot = 0 | etot = 100
1574  ekin = 100 | epot = 0 | etot = 100
1575  ekin = 100 | epot = 0 | etot = 100
1576  ekin = 100 | epot = 0 | etot = 100
1577  ekin = 100 | epot = 0 | etot = 100
1578  ekin = 100 | epot = 0 | etot = 100
1579  ekin = 100 | epot = 0 | etot = 100
1580  ekin = 100 | epot = 0 | etot = 100
1581  ekin = 100 | epot = 0 | etot = 100
1582  ekin = 100 | epot = 0 | etot = 100
1583  ekin = 100 | epot = 0 | etot = 100
1584  ekin = 100 | epot = 0 | etot = 100
1585  ekin = 100 | epot = 0 | etot = 100
1586  ekin = 100 | epot = 0 | etot = 100
1587  ekin = 100 | epot = 0 | etot = 100
1588  ekin = 100 | epot = 0 | etot = 100
1589  ekin = 100 | epot = 0 | etot = 100
1590  ekin = 100 | epot = 0 | etot = 100
1591  ekin = 100 | epot = 0 | etot = 100
1592  ekin = 100 | epot = 0 | etot = 100
1593  ekin = 100 | epot = 0 | etot = 100
1594  ekin = 100 | epot = 0 | etot = 100
1595  ekin = 100 | epot = 0 | etot = 100
1596  ekin = 100 | epot = 0 | etot = 100
1597  ekin = 100 | epot = 0 | etot = 100
1598  ekin = 100 | epot = 0 | etot = 100
1599  ekin = 100 | epot = 0 | etot = 100
1600  ekin = 100 | epot = 0 | etot = 100
1601  ekin = 100 | epot = 0 | etot = 100
1602  ekin = 100 | epot = 0 | etot = 100
1603  ekin = 100 | epot = 0 | etot = 100
1604  ekin = 100 | epot = 0 | etot = 100
1605  ekin = 100 | epot = 0 | etot = 100
1606  ekin = 100 | epot = 0 | etot = 100
1607  ekin = 100 | epot = 0 | etot = 100
1608  ekin = 100 | epot = 0 | etot = 100
1609  ekin = 100 | epot = 0 | etot = 100
1610  ekin = 100 | epot = 0 | etot = 100
1611  ekin = 100 | epot = 0 | etot = 100
1612  ekin = 100 | epot = 0 | etot = 100
1613  ekin = 100 | epot = 0 | etot = 100
1614  ekin = 100 | epot = 0 | etot = 100
1615  ekin = 100 | epot = 0 | etot = 100
1616  ekin = 100 | epot = 0 | etot = 100
1617  ekin = 100 | epot = 0 | etot = 100
1618  ekin = 100 | epot = 0 | etot = 100
1619  ekin = 100 | epot = 0 | etot = 100
1620  ekin = 100 | epot = 0 | etot = 100
1621  ekin = 100 | epot = 0 | etot = 100
1622  ekin = 100 | epot = 0 | etot = 100
1623  ekin = 100 | epot = 0 | etot = 100
1624  ekin = 100 | epot = 0 | etot = 100
1625  ekin = 100 | epot = 0 | etot = 100
1626  ekin = 100 | epot = 0 | etot = 100
1627  ekin = 100 | epot = 0 | etot = 100
1628  ekin = 100 | epot = 0 | etot = 100
1629  ekin = 100 | epot = 0 | etot = 100
1630  ekin = 100 | epot = 0 | etot = 100
1631  ekin = 100 | epot = 0 | etot = 100
1632  ekin = 100 | epot = 0 | etot = 100
1633  ekin = 100 | epot = 0 | etot = 100
1634  ekin = 100 | epot = 0 | etot = 100
1635  ekin = 100 | epot = 0 | etot = 100
1636  ekin = 100 | epot = 0 | etot = 100
1637  ekin = 100 | epot = 0 | etot = 100
1638  ekin = 100 | epot = 0 | etot = 100
1639  ekin = 100 | epot = 0 | etot = 100
1640  ekin = 100 | epot = 0 | etot = 100
1641  ekin = 100 | epot = 0 | etot = 100
1642  ekin = 100 | epot = 0 | etot = 100
1643  ekin = 100 | epot = 0 | etot = 100
1644  ekin = 100 | epot = 0 | etot = 100
1645  ekin = 100 | epot = 0 | etot = 100
1646  ekin = 100 | epot = 0 | etot = 100
1647  ekin = 100 | epot = 0 | etot = 100
1648  ekin = 100 | epot = 0 | etot = 100
1649  ekin = 100 | epot = 0 | etot = 100
1650  ekin = 100 | epot = 0 | etot = 100
1651  ekin = 100 | epot = 0 | etot = 100
1652  ekin = 100 | epot = 0 | etot = 100
1653  ekin = 100 | epot = 0 | etot = 100
1654  ekin = 100 | epot = 0 | etot = 100
1655  ekin = 100 | epot = 0 | etot = 100
1656  ekin = 100 | epot = 0 | etot = 100
1657  ekin = 100 | epot = 0 | etot = 100
1658  ekin = 100 | epot = 0 | etot = 100
1659  ekin = 100 | epot = 0 | etot = 100
1660  ekin = 100 | epot = 0 | etot = 100
1661  ekin = 100 | epot = 0 | etot = 100
1662  ekin = 100 | epot = 0 | etot = 100
1663  ekin = 100 | epot = 0 | etot = 100
1664  ekin = 100 | epot = 0 | etot = 100
1665  ekin = 100 | epot = 0 | etot = 100
1666  ekin = 100 | epot = 0 | etot = 100
1667  ekin = 100 | epot = 0 | etot = 100
1668  ekin = 100 | epot = 0 | etot = 100
1669  ekin = 100 | epot = 0 | etot = 100
1670  ekin = 100 | epot = 0 | etot = 100
1671  ekin = 100 | epot = 0 | etot = 100
1672  ekin = 100 | epot = 0 | etot = 100
1673  ekin = 100 | epot = 0 | etot = 100
1674  ekin = 100 | epot = 0 | etot = 100
1675  ekin = 100 | epot = 0 | etot = 100
1676  ekin = 100 | epot = 0 | etot = 100
1677  ekin = 100 | epot = 0 | etot = 100
1678  ekin = 100 | epot = 0 | etot = 100
1679  ekin = 100 | epot = 0 | etot = 100
1680  ekin = 100 | epot = 0 | etot = 100
1681  ekin = 100 | epot = 0 | etot = 100
1682  ekin = 100 | epot = 0 | etot = 100
1683  ekin = 100 | epot = 0 | etot = 100
1684  ekin = 100 | epot = 0 | etot = 100
1685  ekin = 100 | epot = 0 | etot = 100
1686  ekin = 100 | epot = 0 | etot = 100
1687  ekin = 100 | epot = 0 | etot = 100
1688  ekin = 100 | epot = 0 | etot = 100
1689  ekin = 100 | epot = 0 | etot = 100
1690  ekin = 100 | epot = 0 | etot = 100
1691  ekin = 100 | epot = 0 | etot = 100
1692  ekin = 100 | epot = 0 | etot = 100
1693  ekin = 100 | epot = 0 | etot = 100
1694  ekin = 100 | epot = 0 | etot = 100
1695  ekin = 100 | epot = 0 | etot = 100
1696  ekin = 100 | epot = 0 | etot = 100
1697  ekin = 100 | epot = 0 | etot = 100
1698  ekin = 100 | epot = 0 | etot = 100
1699  ekin = 100 | epot = 0 | etot = 100
1700  ekin = 100 | epot = 0 | etot = 100
1701  ekin = 100 | epot = 0 | etot = 100
1702  ekin = 100 | epot = 0 | etot = 100
1703  ekin = 100 | epot = 0 | etot = 100
1704  ekin = 100 | epot = 0 | etot = 100
1705  ekin = 100 | epot = 0 | etot = 100
1706  ekin = 100 | epot = 0 | etot = 100
1707  ekin = 100 | epot = 0 | etot = 100
1708  ekin = 100 | epot = 0 | etot = 100
1709  ekin = 100 | epot = 0 | etot = 100
1710  ekin = 100 | epot = 0 | etot = 100
1711  ekin = 100 | epot = 0 | etot = 100
1712  ekin = 100 | epot = 0 | etot = 100
1713  ekin = 100 | epot = 0 | etot = 100
1714  ekin = 100 | epot = 0 | etot = 100
1715  ekin = 100 | epot = 0 | etot = 100
1716  ekin = 100 | epot = 0 | etot = 100
1717  ekin = 100 | epot = 0 | etot = 100
1718  ekin = 100 | epot = 0 | etot = 100
1719  ekin = 100 | epot = 0 | etot = 100
1720  ekin = 100 | epot = 0 | etot = 100
1721  ekin = 100 | epot = 0 | etot = 100
1722  ekin = 100 | epot = 0 | etot = 100
1723  ekin = 100 | epot = 0 | etot = 100
1724  ekin = 100 | epot = 0 | etot = 100
1725  ekin = 100 | epot = 0 | etot = 100
1726  ekin = 100 | epot = 0 | etot = 100
1727  ekin = 100 | epot = 0 | etot = 100
1728  ekin = 100 | epot = 0 | etot = 100
1729  ekin = 100 | epot = 0 | etot = 100
1730  ekin = 100 | epot = 0 | etot = 100
1731  ekin = 100 | epot = 0 | etot = 100
1732  ekin = 100 | epot = 0 | etot = 100
1733  ekin = 100 | epot = 0 | etot = 100
1734  ekin = 100 | epot = 0 | etot = 100
1735  ekin = 100 | epot = 0 | etot = 100
1736  ekin = 100 | epot = 0 | etot = 100
1737  ekin = 100 | epot = 0 | etot = 100
1738  ekin = 100 | epot = 0 | etot = 100
1739  ekin = 100 | epot = 0 | etot = 100
1740  ekin = 100 | epot = 0 | etot = 100
1741  ekin = 100 | epot = 0 | etot = 100
1742  ekin = 100 | epot = 0 | etot = 100
1743  ekin = 100 | epot = 0 | etot = 100
1744  ekin = 100 | epot = 0 | etot = 100
1745  ekin = 100 | epot = 0 | etot = 100
1746  ekin = 100 | epot = 0 | etot = 100
1747  ekin = 100 | epot = 0 | etot = 100
1748  ekin = 100 | epot = 0 | etot = 100
1749  ekin = 100 | epot = 0 | etot = 100
1750  ekin = 100 | epot = 0 | etot = 100
1751  ekin = 100 | epot = 0 | etot = 100
1752  ekin = 100 | epot = 0 | etot = 100
1753  ekin = 100 | epot = 0 | etot = 100
1754  ekin = 100 | epot = 0 | etot = 100
1755  ekin = 100 | epot = 0 | etot = 100
1756  ekin = 100 | epot = 0 | etot = 100
1757  ekin = 100 | epot = 0 | etot = 100
1758  ekin = 100 | epot = 0 | etot = 100
1759  ekin = 100 | epot = 0 | etot = 100
1760  ekin = 100 | epot = 0 | etot = 100
1761  ekin = 100 | epot = 0 | etot = 100
1762  ekin = 100 | epot = 0 | etot = 100
1763  ekin = 100 | epot = 0 | etot = 100
1764  ekin = 100 | epot = 0 | etot = 100
1765  ekin = 100 | epot = 0 | etot = 100
1766  ekin = 100 | epot = 0 | etot = 100
1767  ekin = 100 | epot = 0 | etot = 100
1768  ekin = 100 | epot = 0 | etot = 100
1769  ekin = 100 | epot = 0 | etot = 100
1770  ekin = 100 | epot = 0 | etot = 100
1771  ekin = 100 | epot = 0 | etot = 100
1772  ekin = 100 | epot = 0 | etot = 100
1773  ekin = 100 | epot = 0 | etot = 100
1774  ekin = 100 | epot = 0 | etot = 100
1775  ekin = 100 | epot = 0 | etot = 100
1776  ekin = 100 | epot = 0 | etot = 100
1777  ekin = 100 | epot = 0 | etot = 100
1778  ekin = 100 | epot = 0 | etot = 100
1779  ekin = 100 | epot = 0 | etot = 100
1780  ekin = 100 | epot = 0 | etot = 100
1781  ekin = 100 | epot = 0 | etot = 100
1782  ekin = 100 | epot = 0 | etot = 100
1783  ekin = 100 | epot = 0 | etot = 100
1784  ekin = 100 | epot = 0 | etot = 100
1785  ekin = 100 | epot = 0 | etot = 100
1786  ekin = 100 | epot = 0 | etot = 100
1787  ekin = 100 | epot = 0 | etot = 100
1788  ekin = 100 | epot = 0 | etot = 100
1789  ekin = 100 | epot = 0 | etot = 100
1790  ekin = 100 | epot = 0 | etot = 100
1791  ekin = 100 | epot = 0 | etot = 100
1792  ekin = 100 | epot = 0 | etot = 100
1793  ekin = 100 | epot = 0 | etot = 100
1794  ekin = 100 | epot = 0 | etot = 100
1795  ekin = 100 | epot = 0 | etot = 100
1796  ekin = 100 | epot = 0 | etot = 100
1797  ekin = 100 | epot = 0 | etot = 100
1798  ekin = 100 | epot = 0 | etot = 100
1799  ekin = 100 | epot = 0 | etot = 100
1800  ekin = 100 | epot = 0 | etot = 100
1801  ekin = 100 | epot = 0 | etot = 100
1802  ekin = 100 | epot = 0 | etot = 100
1803  ekin = 100 | epot = 0 | etot = 100
1804  ekin = 100 | epot = 0 | etot = 100
1805  ekin = 100 | epot = 0 | etot = 100
1806  ekin = 100 | epot = 0 | etot = 100
1807  ekin = 100 | epot = 0 | etot = 100
1808  ekin = 100 | epot = 0 | etot = 100
1809  ekin = 100 | epot = 0 | etot = 100
1810  ekin = 100 | epot = 0 | etot = 100
1811  ekin = 100 | epot = 0 | etot = 100
1812  ekin = 100 | epot = 0 | etot = 100
1813  ekin = 100 | epot = 0 | etot = 100
1814  ekin = 100 | epot = 0 | etot = 100
1815  ekin = 100 | epot = 0 | etot = 100
1816  ekin = 100 | epot = 0 | etot = 100
1817  ekin = 100 | epot = 0 | etot = 100
1818  ekin = 100 | epot = 0 | etot = 100
1819  ekin = 100 | epot = 0 | etot = 100
1820  ekin = 100 | epot = 0 | etot = 100
1821  ekin = 100 | epot = 0 | etot = 100
1822  ekin = 100 | epot = 0 | etot = 100
1823  ekin = 100 | epot = 0 | etot = 100
1824  ekin = 100 | epot = 0 | etot = 100
1825  ekin = 100 | epot = 0 | etot = 100
1826  ekin = 100 | epot = 0 | etot = 100
1827  ekin = 100 | epot = 0 | etot = 100
1828  ekin = 100 | epot = 0 | etot = 100
1829  ekin = 100 | epot = 0 | etot = 100
1830  ekin = 100 | epot = 0 | etot = 100
1831  ekin = 100 | epot = 0 | etot = 100
1832  ekin = 100 | epot = 0 | etot = 100
1833  ekin = 100 | epot = 0 | etot = 100
1834  ekin = 100 | epot = 0 | etot = 100
1835  ekin = 100 | epot = 0 | etot = 100
1836  ekin = 100 | epot = 0 | etot = 100
1837  ekin = 100 | epot = 0 | etot = 100
1838  ekin = 100 | epot = 0 | etot = 100
1839  ekin = 100 | epot = 0 | etot = 100
1840  ekin = 100 | epot = 0 | etot = 100
1841  ekin = 100 | epot = 0 | etot = 100
1842  ekin = 100 | epot = 0 | etot = 100
1843  ekin = 100 | epot = 0 | etot = 100
1844  ekin = 100 | epot = 0 | etot = 100
1845  ekin = 100 | epot = 0 | etot = 100
1846  ekin = 100 | epot = 0 | etot = 100
1847  ekin = 100 | epot = 0 | etot = 100
1848  ekin = 100 | epot = 0 | etot = 100
1849  ekin = 100 | epot = 0 | etot = 100
1850  ekin = 100 | epot = 0 | etot = 100
1851  ekin = 100 | epot = 0 | etot = 100
1852  ekin = 100 | epot = 0 | etot = 100
1853  ekin = 100 | epot = 0 | etot = 100
1854  ekin = 100 | epot = 0 | etot = 100
1855  ekin = 100 | epot = 0 | etot = 100
1856  ekin = 100 | epot = 0 | etot = 100
1857  ekin = 100 | epot = 0 | etot = 100
1858  ekin = 100 | epot = 0 | etot = 100
1859  ekin = 100 | epot = 0 | etot = 100
1860  ekin = 100 | epot = 0 | etot = 100
1861  ekin = 100 | epot = 0 | etot = 100
1862  ekin = 100 | epot = 0 | etot = 100
1863  ekin = 100 | epot = 0 | etot = 100
1864  ekin = 100 | epot = 0 | etot = 100
1865  ekin = 100 | epot = 0 | etot = 100
1866  ekin = 100 | epot = 0 | etot = 100
1867  ekin = 100 | epot = 0 | etot = 100
1868  ekin = 100 | epot = 0 | etot = 100
1869  ekin = 100 | epot = 0 | etot = 100
1870  ekin = 100 | epot = 0 | etot = 100
1871  ekin = 100 | epot = 0 | etot = 100
1872  ekin = 100 | epot = 0 | etot = 100
1873  ekin = 100 | epot = 0 | etot = 100
1874  ekin = 100 | epot = 0 | etot = 100
1875  ekin = 100 | epot = 0 | etot = 100
1876  ekin = 100 | epot = 0 | etot = 100
1877  ekin = 100 | epot = 0 | etot = 100
1878  ekin = 100 | epot = 0 | etot = 100
1879  ekin = 100 | epot = 0 | etot = 100
1880  ekin = 100 | epot = 0 | etot = 100
1881  ekin = 100 | epot = 0 | etot = 100
1882  ekin = 100 | epot = 0 | etot = 100
1883  ekin = 100 | epot = 0 | etot = 100
1884  ekin = 100 | epot = 0 | etot = 100
1885  ekin = 100 | epot = 0 | etot = 100
1886  ekin = 100 | epot = 0 | etot = 100
1887  ekin = 100 | epot = 0 | etot = 100
1888  ekin = 100 | epot = 0 | etot = 100
1889  ekin = 100 | epot = 0 | etot = 100
[...]
9546  ekin = 100 | epot = 0 | etot = 100
9547  ekin = 100 | epot = 0 | etot = 100
9548  ekin = 100 | epot = 0 | etot = 100
9549  ekin = 100 | epot = 0 | etot = 100
9550  ekin = 100 | epot = 0 | etot = 100
9551  ekin = 100 | epot = 0 | etot = 100
9552  ekin = 100 | epot = 0 | etot = 100
9553  ekin = 100 | epot = 0 | etot = 100
9554  ekin = 100 | epot = 0 | etot = 100
9555  ekin = 100 | epot = 0 | etot = 100
9556  ekin = 100 | epot = 0 | etot = 100
9557  ekin = 100 | epot = 0 | etot = 100
9558  ekin = 100 | epot = 0 | etot = 100
9559  ekin = 100 | epot = 0 | etot = 100
9560  ekin = 100 | epot = 0 | etot = 100
9561  ekin = 100 | epot = 0 | etot = 100
9562  ekin = 100 | epot = 0 | etot = 100
9563  ekin = 100 | epot = 0 | etot = 100
9564  ekin = 100 | epot = 0 | etot = 100
9565  ekin = 100 | epot = 0 | etot = 100
9566  ekin = 100 | epot = 0 | etot = 100
9567  ekin = 100 | epot = 0 | etot = 100
9568  ekin = 100 | epot = 0 | etot = 100
9569  ekin = 100 | epot = 0 | etot = 100
9570  ekin = 100 | epot = 0 | etot = 100
9571  ekin = 100 | epot = 0 | etot = 100
9572  ekin = 100 | epot = 0 | etot = 100
9573  ekin = 100 | epot = 0 | etot = 100
9574  ekin = 100 | epot = 0 | etot = 100
9575  ekin = 100 | epot = 0 | etot = 100
9576  ekin = 100 | epot = 0 | etot = 100
9577  ekin = 100 | epot = 0 | etot = 100
9578  ekin = 100 | epot = 0 | etot = 100
9579  ekin = 100 | epot = 0 | etot = 100
9580  ekin = 100 | epot = 0 | etot = 100
9581  ekin = 100 | epot = 0 | etot = 100
9582  ekin = 100 | epot = 0 | etot = 100
9583  ekin = 100 | epot = 0 | etot = 100
9584  ekin = 100 | epot = 0 | etot = 100
9585  ekin = 100 | epot = 0 | etot = 100
9586  ekin = 100 | epot = 0 | etot = 100
9587  ekin = 100 | epot = 0 | etot = 100
9588  ekin = 100 | epot = 0 | etot = 100
9589  ekin = 100 | epot = 0 | etot = 100
9590  ekin = 100 | epot = 0 | etot = 100
9591  ekin = 100 | epot = 0 | etot = 100
9592  ekin = 100 | epot = 0 | etot = 100
9593  ekin = 100 | epot = 0 | etot = 100
9594  ekin = 100 | epot = 0 | etot = 100
9595  ekin = 100 | epot = 0 | etot = 100
9596  ekin = 100 | epot = 0 | etot = 100
9597  ekin = 100 | epot = 0 | etot = 100
9598  ekin = 100 | epot = 0 | etot = 100
9599  ekin = 100 | epot = 0 | etot = 100
9600  ekin = 100 | epot = 0 | etot = 100
9601  ekin = 100 | epot = 0 | etot = 100
9602  ekin = 100 | epot = 0 | etot = 100
9603  ekin = 100 | epot = 0 | etot = 100
9604  ekin = 100 | epot = 0 | etot = 100
9605  ekin = 100 | epot = 0 | etot = 100
9606  ekin = 100 | epot = 0 | etot = 100
9607  ekin = 100 | epot = 0 | etot = 100
9608  ekin = 100 | epot = 0 | etot = 100
9609  ekin = 100 | epot = 0 | etot = 100
9610  ekin = 100 | epot = 0 | etot = 100
9611  ekin = 100 | epot = 0 | etot = 100
9612  ekin = 100 | epot = 0 | etot = 100
9613  ekin = 100 | epot = 0 | etot = 100
9614  ekin = 100 | epot = 0 | etot = 100
9615  ekin = 100 | epot = 0 | etot = 100
9616  ekin = 100 | epot = 0 | etot = 100
9617  ekin = 100 | epot = 0 | etot = 100
9618  ekin = 100 | epot = 0 | etot = 100
9619  ekin = 100 | epot = 0 | etot = 100
9620  ekin = 100 | epot = 0 | etot = 100
9621  ekin = 100 | epot = 0 | etot = 100
9622  ekin = 100 | epot = 0 | etot = 100
9623  ekin = 100 | epot = 0 | etot = 100
9624  ekin = 100 | epot = 0 | etot = 100
9625  ekin = 100 | epot = 0 | etot = 100
9626  ekin = 100 | epot = 0 | etot = 100
9627  ekin = 100 | epot = 0 | etot = 100
9628  ekin = 100 | epot = 0 | etot = 100
9629  ekin = 100 | epot = 0 | etot = 100
9630  ekin = 100 | epot = 0 | etot = 100
9631  ekin = 100 | epot = 0 | etot = 100
9632  ekin = 100 | epot = 0 | etot = 100
9633  ekin = 100 | epot = 0 | etot = 100
9634  ekin = 100 | epot = 0 | etot = 100
9635  ekin = 100 | epot = 0 | etot = 100
9636  ekin = 100 | epot = 0 | etot = 100
9637  ekin = 100 | epot = 0 | etot = 100
9638  ekin = 100 | epot = 0 | etot = 100
9639  ekin = 100 | epot = 0 | etot = 100
9640  ekin = 100 | epot = 0 | etot = 100
9641  ekin = 100 | epot = 0 | etot = 100
9642  ekin = 100 | epot = 0 | etot = 100
9643  ekin = 100 | epot = 0 | etot = 100
9644  ekin = 100 | epot = 0 | etot = 100
9645  ekin = 100 | epot = 0 | etot = 100
9646  ekin = 100 | epot = 0 | etot = 100
9647  ekin = 100 | epot = 0 | etot = 100
9648  ekin = 100 | epot = 0 | etot = 100
9649  ekin = 100 | epot = 0 | etot = 100
9650  ekin = 100 | epot = 0 | etot = 100
9651  ekin = 100 | epot = 0 | etot = 100
9652  ekin = 100 | epot = 0 | etot = 100
9653  ekin = 100 | epot = 0 | etot = 100
9654  ekin = 100 | epot = 0 | etot = 100
9655  ekin = 100 | epot = 0 | etot = 100
9656  ekin = 100 | epot = 0 | etot = 100
9657  ekin = 100 | epot = 0 | etot = 100
9658  ekin = 100 | epot = 0 | etot = 100
9659  ekin = 100 | epot = 0 | etot = 100
9660  ekin = 100 | epot = 0 | etot = 100
9661  ekin = 100 | epot = 0 | etot = 100
9662  ekin = 100 | epot = 0 | etot = 100
9663  ekin = 100 | epot = 0 | etot = 100
9664  ekin = 100 | epot = 0 | etot = 100
9665  ekin = 100 | epot = 0 | etot = 100
9666  ekin = 100 | epot = 0 | etot = 100
9667  ekin = 100 | epot = 0 | etot = 100
9668  ekin = 100 | epot = 0 | etot = 100
9669  ekin = 100 | epot = 0 | etot = 100
9670  ekin = 100 | epot = 0 | etot = 100
9671  ekin = 100 | epot = 0 | etot = 100
9672  ekin = 100 | epot = 0 | etot = 100
9673  ekin = 100 | epot = 0 | etot = 100
9674  ekin = 100 | epot = 0 | etot = 100
9675  ekin = 100 | epot = 0 | etot = 100
9676  ekin = 100 | epot = 0 | etot = 100
9677  ekin = 100 | epot = 0 | etot = 100
9678  ekin = 100 | epot = 0 | etot = 100
9679  ekin = 100 | epot = 0 | etot = 100
9680  ekin = 100 | epot = 0 | etot = 100
9681  ekin = 100 | epot = 0 | etot = 100
9682  ekin = 100 | epot = 0 | etot = 100
9683  ekin = 100 | epot = 0 | etot = 100
9684  ekin = 100 | epot = 0 | etot = 100
9685  ekin = 100 | epot = 0 | etot = 100
9686  ekin = 100 | epot = 0 | etot = 100
9687  ekin = 100 | epot = 0 | etot = 100
9688  ekin = 100 | epot = 0 | etot = 100
9689  ekin = 100 | epot = 0 | etot = 100
9690  ekin = 100 | epot = 0 | etot = 100
9691  ekin = 100 | epot = 0 | etot = 100
9692  ekin = 100 | epot = 0 | etot = 100
9693  ekin = 100 | epot = 0 | etot = 100
9694  ekin = 100 | epot = 0 | etot = 100
9695  ekin = 100 | epot = 0 | etot = 100
9696  ekin = 100 | epot = 0 | etot = 100
9697  ekin = 100 | epot = 0 | etot = 100
9698  ekin = 100 | epot = 0 | etot = 100
9699  ekin = 100 | epot = 0 | etot = 100
9700  ekin = 100 | epot = 0 | etot = 100
9701  ekin = 100 | epot = 0 | etot = 100
9702  ekin = 100 | epot = 0 | etot = 100
9703  ekin = 100 | epot = 0 | etot = 100
9704  ekin = 100 | epot = 0 | etot = 100
9705  ekin = 100 | epot = 0 | etot = 100
9706  ekin = 100 | epot = 0 | etot = 100
9707  ekin = 100 | epot = 0 | etot = 100
9708  ekin = 100 | epot = 0 | etot = 100
9709  ekin = 100 | epot = 0 | etot = 100
9710  ekin = 100 | epot = 0 | etot = 100
9711  ekin = 100 | epot = 0 | etot = 100
9712  ekin = 100 | epot = 0 | etot = 100
9713  ekin = 100 | epot = 0 | etot = 100
9714  ekin = 100 | epot = 0 | etot = 100
9715  ekin = 100 | epot = 0 | etot = 100
9716  ekin = 100 | epot = 0 | etot = 100
9717  ekin = 100 | epot = 0 | etot = 100
9718  ekin = 100 | epot = 0 | etot = 100
9719  ekin = 100 | epot = 0 | etot = 100
9720  ekin = 100 | epot = 0 | etot = 100
9721  ekin = 100 | epot = 0 | etot = 100
9722  ekin = 100 | epot = 0 | etot = 100
9723  ekin = 100 | epot = 0 | etot = 100
9724  ekin = 100 | epot = 0 | etot = 100
9725  ekin = 100 | epot = 0 | etot = 100
9726  ekin = 100 | epot = 0 | etot = 100
9727  ekin = 100 | epot = 0 | etot = 100
9728  ekin = 100 | epot = 0 | etot = 100
9729  ekin = 100 | epot = 0 | etot = 100
9730  ekin = 100 | epot = 0 | etot = 100
9731  ekin = 100 | epot = 0 | etot = 100
9732  ekin = 100 | epot = 0 | etot = 100
9733  ekin = 100 | epot = 0 | etot = 100
9734  ekin = 100 | epot = 0 | etot = 100
9735  ekin = 100 | epot = 0 | etot = 100
9736  ekin = 100 | epot = 0 | etot = 100
9737  ekin = 100 | epot = 0 | etot = 100
9738  ekin = 100 | epot = 0 | etot = 100
9739  ekin = 100 | epot = 0 | etot = 100
9740  ekin = 100 | epot = 0 | etot = 100
9741  ekin = 100 | epot = 0 | etot = 100
9742  ekin = 100 | epot = 0 | etot = 100
9743  ekin = 100 | epot = 0 | etot = 100
9744  ekin = 100 | epot = 0 | etot = 100
9745  ekin = 100 | epot = 0 | etot = 100
9746  ekin = 100 | epot = 0 | etot = 100
9747  ekin = 100 | epot = 0 | etot = 100
9748  ekin = 100 | epot = 0 | etot = 100
9749  ekin = 100 | epot = 0 | etot = 100
9750  ekin = 100 | epot = 0 | etot = 100
9751  ekin = 100 | epot = 0 | etot = 100
9752  ekin = 100 | epot = 0 | etot = 100
9753  ekin = 100 | epot = 0 | etot = 100
9754  ekin = 100 | epot = 0 | etot = 100
9755  ekin = 100 | epot = 0 | etot = 100
9756  ekin = 100 | epot = 0 | etot = 100
9757  ekin = 100 | epot = 0 | etot = 100
9758  ekin = 100 | epot = 0 | etot = 100
9759  ekin = 100 | epot = 0 | etot = 100
9760  ekin = 100 | epot = 0 | etot = 100
9761  ekin = 100 | epot = 0 | etot = 100
9762  ekin = 100 | epot = 0 | etot = 100
9763  ekin = 100 | epot = 0 | etot = 100
9764  ekin = 100 | epot = 0 | etot = 100
9765  ekin = 100 | epot = 0 | etot = 100
9766  ekin = 100 | epot = 0 | etot = 100
9767  ekin = 100 | epot = 0 | etot = 100
9768  ekin = 100 | epot = 0 | etot = 100
9769  ekin = 100 | epot = 0 | etot = 100
9770  ekin = 100 | epot = 0 | etot = 100
9771  ekin = 100 | epot = 0 | etot = 100
9772  ekin = 100 | epot = 0 | etot = 100
9773  ekin = 100 | epot = 0 | etot = 100
9774  ekin = 100 | epot = 0 | etot = 100
9775  ekin = 100 | epot = 0 | etot = 100
9776  ekin = 100 | epot = 0 | etot = 100
9777  ekin = 100 | epot = 0 | etot = 100
9778  ekin = 100 | epot = 0 | etot = 100
9779  ekin = 100 | epot = 0 | etot = 100
9780  ekin = 100 | epot = 0 | etot = 100
9781  ekin = 100 | epot = 0 | etot = 100
9782  ekin = 100 | epot = 0 | etot = 100
9783  ekin = 100 | epot = 0 | etot = 100
9784  ekin = 100 | epot = 0 | etot = 100
9785  ekin = 100 | epot = 0 | etot = 100
9786  ekin = 100 | epot = 0 | etot = 100
9787  ekin = 100 | epot = 0 | etot = 100
9788  ekin = 100 | epot = 0 | etot = 100
9789  ekin = 100 | epot = 0 | etot = 100
9790  ekin = 100 | epot = 0 | etot = 100
9791  ekin = 100 | epot = 0 | etot = 100
9792  ekin = 100 | epot = 0 | etot = 100
9793  ekin = 100 | epot = 0 | etot = 100
9794  ekin = 100 | epot = 0 | etot = 100
9795  ekin = 100 | epot = 0 | etot = 100
9796  ekin = 100 | epot = 0 | etot = 100
9797  ekin = 100 | epot = 0 | etot = 100
9798  ekin = 100 | epot = 0 | etot = 100
9799  ekin = 100 | epot = 0 | etot = 100
9800  ekin = 100 | epot = 0 | etot = 100
9801  ekin = 100 | epot = 0 | etot = 100
9802  ekin = 100 | epot = 0 | etot = 100
9803  ekin = 100 | epot = 0 | etot = 100
9804  ekin = 100 | epot = 0 | etot = 100
9805  ekin = 100 | epot = 0 | etot = 100
9806  ekin = 100 | epot = 0 | etot = 100
9807  ekin = 100 | epot = 0 | etot = 100
9808  ekin = 100 | epot = 0 | etot = 100
9809  ekin = 100 | epot = 0 | etot = 100
9810  ekin = 100 | epot = 0 | etot = 100
9811  ekin = 100 | epot = 0 | etot = 100
9812  ekin = 100 | epot = 0 | etot = 100
9813  ekin = 100 | epot = 0 | etot = 100
9814  ekin = 100 | epot = 0 | etot = 100
9815  ekin = 100 | epot = 0 | etot = 100
9816  ekin = 100 | epot = 0 | etot = 100
9817  ekin = 100 | epot = 0 | etot = 100
9818  ekin = 100 | epot = 0 | etot = 100
9819  ekin = 100 | epot = 0 | etot = 100
9820  ekin = 100 | epot = 0 | etot = 100
9821  ekin = 100 | epot = 0 | etot = 100
9822  ekin = 100 | epot = 0 | etot = 100
9823  ekin = 100 | epot = 0 | etot = 100
9824  ekin = 100 | epot = 0 | etot = 100
9825  ekin = 100 | epot = 0 | etot = 100
9826  ekin = 100 | epot = 0 | etot = 100
9827  ekin = 100 | epot = 0 | etot = 100
9828  ekin = 100 | epot = 0 | etot = 100
9829  ekin = 100 | epot = 0 | etot = 100
9830  ekin = 100 | epot = 0 | etot = 100
9831  ekin = 100 | epot = 0 | etot = 100
9832  ekin = 100 | epot = 0 | etot = 100
9833  ekin = 100 | epot = 0 | etot = 100
9834  ekin = 100 | epot = 0 | etot = 100
9835  ekin = 100 | epot = 0 | etot = 100
9836  ekin = 100 | epot = 0 | etot = 100
9837  ekin = 100 | epot = 0 | etot = 100
9838  ekin = 100 | epot = 0 | etot = 100
9839  ekin = 100 | epot = 0 | etot = 100
9840  ekin = 100 | epot = 0 | etot = 100
9841  ekin = 100 | epot = 0 | etot = 100
9842  ekin = 100 | epot = 0 | etot = 100
9843  ekin = 100 | epot = 0 | etot = 100
9844  ekin = 100 | epot = 0 | etot = 100
9845  ekin = 100 | epot = 0 | etot = 100
9846  ekin = 100 | epot = 0 | etot = 100
9847  ekin = 100 | epot = 0 | etot = 100
9848  ekin = 100 | epot = 0 | etot = 100
9849  ekin = 100 | epot = 0 | etot = 100
9850  ekin = 100 | epot = 0 | etot = 100
9851  ekin = 100 | epot = 0 | etot = 100
9852  ekin = 100 | epot = 0 | etot = 100
9853  ekin = 100 | epot = 0 | etot = 100
9854  ekin = 100 | epot = 0 | etot = 100
9855  ekin = 100 | epot = 0 | etot = 100
9856  ekin = 100 | epot = 0 | etot = 100
9857  ekin = 100 | epot = 0 | etot = 100
9858  ekin = 100 | epot = 0 | etot = 100
9859  ekin = 100 | epot = 0 | etot = 100
9860  ekin = 100 | epot = 0 | etot = 100
9861  ekin = 100 | epot = 0 | etot = 100
9862  ekin = 100 | epot = 0 | etot = 100
9863  ekin = 100 | epot = 0 | etot = 100
9864  ekin = 100 | epot = 0 | etot = 100
9865  ekin = 100 | epot = 0 | etot = 100
9866  ekin = 100 | epot = 0 | etot = 100
9867  ekin = 100 | epot = 0 | etot = 100
9868  ekin = 100 | epot = 0 | etot = 100
9869  ekin = 100 | epot = 0 | etot = 100
9870  ekin = 100 | epot = 0 | etot = 100
9871  ekin = 100 | epot = 0 | etot = 100
9872  ekin = 100 | epot = 0 | etot = 100
9873  ekin = 100 | epot = 0 | etot = 100
9874  ekin = 100 | epot = 0 | etot = 100
9875  ekin = 100 | epot = 0 | etot = 100
9876  ekin = 100 | epot = 0 | etot = 100
9877  ekin = 100 | epot = 0 | etot = 100
9878  ekin = 100 | epot = 0 | etot = 100
9879  ekin = 100 | epot = 0 | etot = 100
9880  ekin = 100 | epot = 0 | etot = 100
9881  ekin = 100 | epot = 0 | etot = 100
9882  ekin = 100 | epot = 0 | etot = 100
9883  ekin = 100 | epot = 0 | etot = 100
9884  ekin = 100 | epot = 0 | etot = 100
9885  ekin = 100 | epot = 0 | etot = 100
9886  ekin = 100 | epot = 0 | etot = 100
9887  ekin = 100 | epot = 0 | etot = 100
9888  ekin = 100 | epot = 0 | etot = 100
9889  ekin = 100 | epot = 0 | etot = 100
9890  ekin = 100 | epot = 0 | etot = 100
9891  ekin = 100 | epot = 0 | etot = 100
9892  ekin = 100 | epot = 0 | etot = 100
9893  ekin = 100 | epot = 0 | etot = 100
9894  ekin = 100 | epot = 0 | etot = 100
9895  ekin = 100 | epot = 0 | etot = 100
9896  ekin = 100 | epot = 0 | etot = 100
9897  ekin = 100 | epot = 0 | etot = 100
9898  ekin = 100 | epot = 0 | etot = 100
9899  ekin = 100 | epot = 0 | etot = 100
9900  ekin = 100 | epot = 0 | etot = 100
9901  ekin = 100 | epot = 0 | etot = 100
9902  ekin = 100 | epot = 0 | etot = 100
9903  ekin = 100 | epot = 0 | etot = 100
9904  ekin = 100 | epot = 0 | etot = 100
9905  ekin = 100 | epot = 0 | etot = 100
9906  ekin = 100 | epot = 0 | etot = 100
9907  ekin = 100 | epot = 0 | etot = 100
9908  ekin = 100 | epot = 0 | etot = 100
9909  ekin = 100 | epot = 0 | etot = 100
9910  ekin = 100 | epot = 0 | etot = 100
9911  ekin = 100 | epot = 0 | etot = 100
9912  ekin = 100 | epot = 0 | etot = 100
9913  ekin = 100 | epot = 0 | etot = 100
9914  ekin = 100 | epot = 0 | etot = 100
9915  ekin = 100 | epot = 0 | etot = 100
9916  ekin = 100 | epot = 0 | etot = 100
9917  ekin = 100 | epot = 0 | etot = 100
9918  ekin = 100 | epot = 0 | etot = 100
9919  ekin = 100 | epot = 0 | etot = 100
9920  ekin = 100 | epot = 0 | etot = 100
9921  ekin = 100 | epot = 0 | etot = 100
9922  ekin = 100 | epot = 0 | etot = 100
9923  ekin = 100 | epot = 0 | etot = 100
9924  ekin = 100 | epot = 0 | etot = 100
9925  ekin = 100 | epot = 0 | etot = 100
9926  ekin = 100 | epot = 0 | etot = 100
9927  ekin = 100 | epot = 0 | etot = 100
9928  ekin = 100 | epot = 0 | etot = 100
9929  ekin = 100 | epot = 0 | etot = 100
9930  ekin = 100 | epot = 0 | etot = 100
9931  ekin = 100 | epot = 0 | etot = 100
9932  ekin = 100 | epot = 0 | etot = 100
9933  ekin = 100 | epot = 0 | etot = 100
9934  ekin = 100 | epot = 0 | etot = 100
9935  ekin = 100 | epot = 0 | etot = 100
9936  ekin = 100 | epot = 0 | etot = 100
9937  ekin = 100 | epot = 0 | etot = 100
9938  ekin = 100 | epot = 0 | etot = 100
9939  ekin = 100 | epot = 0 | etot = 100
9940  ekin = 100 | epot = 0 | etot = 100
9941  ekin = 100 | epot = 0 | etot = 100
9942  ekin = 100 | epot = 0 | etot = 100
9943  ekin = 100 | epot = 0 | etot = 100
9944  ekin = 100 | epot = 0 | etot = 100
9945  ekin = 100 | epot = 0 | etot = 100
9946  ekin = 100 | epot = 0 | etot = 100
9947  ekin = 100 | epot = 0 | etot = 100
9948  ekin = 100 | epot = 0 | etot = 100
9949  ekin = 100 | epot = 0 | etot = 100
9950  ekin = 100 | epot = 0 | etot = 100
9951  ekin = 100 | epot = 0 | etot = 100
9952  ekin = 100 | epot = 0 | etot = 100
9953  ekin = 100 | epot = 0 | etot = 100
9954  ekin = 100 | epot = 0 | etot = 100
9955  ekin = 100 | epot = 0 | etot = 100
9956  ekin = 100 | epot = 0 | etot = 100
9957  ekin = 100 | epot = 0 | etot = 100
9958  ekin = 100 | epot = 0 | etot = 100
9959  ekin = 100 | epot = 0 | etot = 100
9960  ekin = 100 | epot = 0 | etot = 100
9961  ekin = 100 | epot = 0 | etot = 100
9962  ekin = 100 | epot = 0 | etot = 100
9963  ekin = 100 | epot = 0 | etot = 100
9964  ekin = 100 | epot = 0 | etot = 100
9965  ekin = 100 | epot = 0 | etot = 100
9966  ekin = 100 | epot = 0 | etot = 100
9967  ekin = 100 | epot = 0 | etot = 100
9968  ekin = 100 | epot = 0 | etot = 100
9969  ekin = 100 | epot = 0 | etot = 100
9970  ekin = 100 | epot = 0 | etot = 100
9971  ekin = 100 | epot = 0 | etot = 100
9972  ekin = 100 | epot = 0 | etot = 100
9973  ekin = 100 | epot = 0 | etot = 100
9974  ekin = 100 | epot = 0 | etot = 100
9975  ekin = 100 | epot = 0 | etot = 100
9976  ekin = 100 | epot = 0 | etot = 100
9977  ekin = 100 | epot = 0 | etot = 100
9978  ekin = 100 | epot = 0 | etot = 100
9979  ekin = 100 | epot = 0 | etot = 100
9980  ekin = 100 | epot = 0 | etot = 100
9981  ekin = 100 | epot = 0 | etot = 100
9982  ekin = 100 | epot = 0 | etot = 100
9983  ekin = 100 | epot = 0 | etot = 100
9984  ekin = 100 | epot = 0 | etot = 100
9985  ekin = 100 | epot = 0 | etot = 100
9986  ekin = 100 | epot = 0 | etot = 100
9987  ekin = 100 | epot = 0 | etot = 100
9988  ekin = 100 | epot = 0 | etot = 100
9989  ekin = 100 | epot = 0 | etot = 100
9990  ekin = 100 | epot = 0 | etot = 100
9991  ekin = 100 | epot = 0 | etot = 100
9992  ekin = 100 | epot = 0 | etot = 100
9993  ekin = 100 | epot = 0 | etot = 100
9994  ekin = 100 | epot = 0 | etot = 100
9995  ekin = 100 | epot = 0 | etot = 100
9996  ekin = 100 | epot = 0 | etot = 100
9997  ekin = 100 | epot = 0 | etot = 100
9998  ekin = 100 | epot = 0 | etot = 100
9999  ekin = 100 | epot = 0 | etot = 100
10000  ekin = 100 | epot = 0 | etot = 100
     10000   66.666667      0              0              50             0.52083333   
Loop time of 1.36477 on 2 procs for 10000 steps with 2 atoms

Performance: 633075.435 tau/day, 7327.262 timesteps/s, 14.655 katom-step/s
64.4% CPU use with 2 MPI tasks x no OpenMP threads

MPI task timing breakdown:
Section |  min time  |  avg time  |  max time  |%varavg| %total
---------------------------------------------------------------
Pair    | 0.0017752  | 0.00268    | 0.0035847  |   1.7 |  0.20
Neigh   | 0.00050228 | 0.00050324 | 0.0005042  |   0.0 |  0.04
Comm    | 0.27013    | 0.27177    | 0.27342    |   0.3 | 19.91
Output  | 0.20016    | 0.54702    | 0.89388    |  46.9 | 40.08
Modify  | 0.12272    | 0.14398    | 0.16525    |   5.6 | 10.55
Other   |            | 0.3988     |            |       | 29.22

Nlocal:              1 ave           1 max           1 min
Histogram: 2 0 0 0 0 0 0 0 0 0
Nghost:           21.5 ave          26 max          17 min
Histogram: 1 0 0 0 0 0 0 0 0 1
Neighs:            0.5 ave           1 max           0 min
Histogram: 1 0 0 0 0 0 0 0 0 1

Total # of neighbors = 1
Ave neighs/atom = 0.5
Neighbor list builds = 132
Dangerous builds = 0

write_data data_out.* nocoeff
System init for write_data ...
Generated 0 of 0 mixed pair_coeff terms from geometric mixing rule

Total wall time: 0:00:01
