LAMMPS (19 Nov 2024 - Development - patch_19Nov2024-564-gf96768effb-modified)
OMP_NUM_THREADS environment is not set. Defaulting to 1 thread. (src/comm.cpp:99)
  using 1 OpenMP thread(s) per MPI task
###
# Box and units  (use LJ units and periodic boundaries)
###

units           lj
atom_style      ellipsoid
dimension	3
boundary	p p p

lattice		sc 0.75
Lattice spacing in x,y,z = 1.1006424 1.1006424 1.1006424
region		box block 0 46 0 46 0 46
create_box	1 box
Created orthogonal box = (0 0 0) to (50.629551 50.629551 50.629551)
  1 by 2 by 2 MPI processor grid
create_atoms	1 box
Created 97336 atoms
  using lattice units in orthogonal box = (0 0 0) to (50.629551 50.629551 50.629551)
  create_atoms CPU = 0.002 seconds

group           all type 1
97336 atoms in group all
set             type 1 mass 1.0
Setting atom values ...
  97336 settings made for mass
set             type 1 shape 1.0 0.4 0.8
Setting atom values ...
  97336 settings made for shape
set             type 1 quat/random 29898
Setting atom values ...
  97336 settings made for quat/random

velocity 	all create 0.1 87287 loop geom

neighbor        0.3 bin
neigh_modify    delay 0 every 100 check yes

###################################################################
# Pair interaction between non-bonded atoms
#
#  Lennard-Jones 12-6 potential with cutoff:
#  potential E=4epsilon[ (sigma/r)^12 - (sigma/r)^6]  for r<r_cut
#
#  1.12246152962189 = 2^(1/6) is the minimum of the potential

pair_style      lj/cut 1.12246152962189

#
#  pair_coeff for lj/cut, specify 4:
#    * atom type interacting with
#    * atom type
#    * epsilon (energy units)
#    * sigma (distance units)
#

pair_coeff      1 1 1.0 1.1

#
#  pair_modify shift yes adds a constant to the potential such
#  that E(r_cut)=0. Forces remains unchanged.
#

pair_modify     shift yes

###################################################
reset_atoms 	id sort yes
Resetting atom IDs ...
Generated 0 of 0 mixed pair_coeff terms from geometric mixing rule
Neighbor list info ...
  update: every = 100 steps, delay = 0 steps, check = yes
  max neighbors/atom: 2000, page size: 100000
  master list distance cutoff = 1.4224615
  ghost atom cutoff = 1.4224615
  binsize = 0.71123076, bins = 72 72 72
  1 neighbor lists, perpetual/occasional/extra = 1 0 0
  (1) pair lj/cut, perpetual
      attributes: half, newton on
      pair build: half/bin/atomonly/newton
      stencil: half/bin/3d
      bin: standard

comm_modify cutoff 6
#comm_style tiled
#balance 1.2 rcb

###
# Set up fixes
###

fix 1 all   nve   ###NVE ensemble
#fix 2 all   langevin   1.0 1.0   2.0   424242   ###Langevin integrator Tstart Tstop 1/friction rndseed

compute ekin all ke
compute epot all pe
variable ekin equal c_ekin
variable epot equal c_epot
variable etot equal c_ekin+c_epot

fix 3 all print 5000 "$(step)  ekin = ${ekin} | epot = ${epot} | etot = ${etot}" screen yes

compute q all property/atom quatw quati quatj quatk
compute diameter all property/atom shapex shapey shapez
dump 1 all custom 5000 dump.polymer id type x y z c_q[1] c_q[2] c_q[3] c_q[4] c_diameter[1] c_diameter[2] c_diameter[3]
dump_modify 1 colname c_q[1] quatw colname c_q[2] quati colname c_q[3] quatj colname c_q[4] quatk

###################################################

timestep 0.0001 #0.012

run 100000
Generated 0 of 0 mixed pair_coeff terms from geometric mixing rule
0  ekin = 14600.25 | epot = 114101.310716572 | etot = 128701.560716572
Per MPI rank memory allocation (min/avg/max) = 27.4 | 27.4 | 27.4 Mbytes
   Step          Temp          E_pair         E_mol          TotEng         Press     
         0   0.1            1.1722416      0              1.3222401      17.886605    
5000  ekin = 78581.4905008313 | epot = 50119.9872553061 | etot = 128701.477756137
10000  ekin = 83137.1828698634 | epot = 45564.2693287124 | etot = 128701.452198576
15000  ekin = 84262.8527564884 | epot = 44439.5522669264 | etot = 128702.405023415
20000  ekin = 84574.8396601224 | epot = 44127.9829834854 | etot = 128702.822643608
25000  ekin = 84771.6559502411 | epot = 43932.4058856185 | etot = 128704.06183586
30000  ekin = 84820.932363484 | epot = 43883.575147721 | etot = 128704.507511205
35000  ekin = 84856.9557532307 | epot = 43849.9786206544 | etot = 128706.934373885
40000  ekin = 85159.6381180782 | epot = 43547.4461816871 | etot = 128707.084299765
45000  ekin = 85148.20721706 | epot = 43559.6874701968 | etot = 128707.894687257
50000  ekin = 85049.9887967866 | epot = 43658.1023792639 | etot = 128708.091176051
55000  ekin = 85320.7964988599 | epot = 43388.8938999564 | etot = 128709.690398816
60000  ekin = 84851.2386434951 | epot = 43859.6835892185 | etot = 128710.922232714
65000  ekin = 85076.4884176833 | epot = 43634.2866409442 | etot = 128710.775058628
70000  ekin = 85091.88418603 | epot = 43618.6055452225 | etot = 128710.489731252
75000  ekin = 85263.9994491108 | epot = 43447.7341178819 | etot = 128711.733566993
80000  ekin = 85300.494186852 | epot = 43411.4283002544 | etot = 128711.922487106
85000  ekin = 85042.5818295442 | epot = 43670.9697079395 | etot = 128713.551537484
90000  ekin = 85160.4504488196 | epot = 43553.6788920518 | etot = 128714.129340871
95000  ekin = 85139.7935530945 | epot = 43574.2974877856 | etot = 128714.09104088
100000  ekin = 85296.7967460621 | epot = 43417.6505687282 | etot = 128714.44731479
    100000   0.58421463     0.44605953     0              1.3223725      6.2144891    
Loop time of 235.009 on 4 procs for 100000 steps with 97336 atoms

Performance: 3676.450 tau/day, 425.515 timesteps/s, 41.418 Matom-step/s
89.7% CPU use with 4 MPI tasks x 1 OpenMP threads

MPI task timing breakdown:
Section |  min time  |  avg time  |  max time  |%varavg| %total
---------------------------------------------------------------
Pair    | 59.86      | 62.846     | 70.156     |  53.4 | 26.74
Neigh   | 1.5461     | 1.6259     | 1.8604     |  10.6 |  0.69
Comm    | 125.83     | 134.81     | 138.03     |  44.7 | 57.36
Output  | 0.61401    | 0.6339     | 0.65164    |   1.8 |  0.27
Modify  | 14.279     | 14.806     | 15.89      |  16.5 |  6.30
Other   |            | 20.29      |            |       |  8.63

Nlocal:          24334 ave       24367 max       24308 min
Histogram: 1 0 1 0 1 0 0 0 0 1
Nghost:        40989.5 ave       41052 max       40957 min
Histogram: 1 1 1 0 0 0 0 0 0 1
Neighs:         124844 ave      125377 max      124439 min
Histogram: 1 1 0 0 0 0 1 0 0 1

Total # of neighbors = 499375
Ave neighs/atom = 5.1304245
Neighbor list builds = 227
Dangerous builds = 0

write_data data_out.* nocoeff
System init for write_data ...
Generated 0 of 0 mixed pair_coeff terms from geometric mixing rule
Total wall time: 0:03:55
