LAMMPS data file via write_data, version 4 Feb 2025, timestep = 15000, units = lj

2000 atoms
4 atom types
1980 bonds
1 bond types
2000 ellipsoids

-500 500 xlo xhi
-500 500 ylo yhi
-500 500 zlo zhi

Masses

1 3.1575
2 3.1575
3 3.1575
4 3.1575

Atoms # hybrid/kk

600 2 -176.07951049761633 -454.61520792461977 -476.53076620723215 6 1 1 0 0 0
402 3 -176.63169410885902 -454.6540642763479 -475.4459915478179 5 1 1 0 0 0
403 4 -176.16677122199962 -454.8333878668494 -475.27135800274635 5 1 1 0 0 0
404 2 -175.64553625384517 -454.84608228293183 -475.20570654494327 5 1 1 0 0 0
405 3 -175.15693990574366 -454.65740513326006 -475.1718863476583 5 1 1 0 0 0
401 3 -176.96942172006788 -454.4204332580081 -475.7631555865639 5 1 1 0 0 0
406 4 -174.77944846913235 -454.3033786339544 -475.08483658394533 5 1 1 0 0 0
595 1 -175.66078090274658 -453.8886156804138 -474.3880758618257 6 1 1 0 0 0
596 2 -175.8045449134402 -453.7006483291056 -474.8565353560104 6 1 1 0 0 0
597 3 -175.83610920616442 -453.67673581640094 -475.3799840123226 6 1 1 0 0 0
598 1 -175.83446665879694 -453.85441422611314 -475.8747381403952 6 1 1 0 0 0
599 2 -175.89187974336343 -454.2018518460473 -476.26969729287396 6 1 1 0 0 0
407 4 -174.5537353924339 -453.87688354017314 -474.87852522331076 5 1 1 0 0 0
408 4 -174.46826365924048 -453.495760854548 -474.52803423486927 5 1 1 0 0 0
593 1 -174.92967376485726 -454.3573481762394 -473.8359031247679 6 1 1 0 0 0
594 1 -175.36495997487654 -454.14683060391565 -474.0398898694334 6 1 1 0 0 0
409 4 -174.46320695876645 -453.26222967218985 -474.0581050996672 5 1 1 0 0 0
410 4 -174.45104865454215 -453.2276868366763 -473.5346094473199 5 1 1 0 0 0
411 4 -174.34671371522487 -453.37500657010474 -473.04186343343446 5 1 1 0 0 0
412 1 -174.09687478178944 -453.62444333626604 -472.65359913829366 5 1 1 0 0 0
413 3 -173.6983063715421 -453.8610899548555 -472.4075728336229 5 1 1 0 0 0
587 2 -173.09825784950326 -452.8606052413904 -472.7209328356702 6 1 1 0 0 0
588 2 -173.11612142749394 -453.1391648201732 -473.16531194792117 6 1 1 0 0 0
589 4 -173.23334021636205 -453.54289474677955 -473.47939672339527 6 1 1 0 0 0
590 1 -173.4988052844803 -453.96179466697987 -473.65097325243164 6 1 1 0 0 0
591 1 -173.91036150373782 -454.2806407252718 -473.7168980250411 6 1 1 0 0 0
592 1 -174.41555020094364 -454.41866099460685 -473.7504075056663 6 1 1 0 0 0
414 3 -173.1989956392841 -453.97444340407105 -472.2925635770351 5 1 1 0 0 0
415 4 -172.68161874273983 -453.8964546853564 -472.2522368240026 5 1 1 0 0 0
584 4 -172.81233411951544 -453.1140035988001 -471.27453440515933 6 1 1 0 0 0
585 4 -173.02259019684473 -452.88046063222123 -471.6948169344586 6 1 1 0 0 0
586 1 -173.09664704511056 -452.77411596779285 -472.20333806043243 6 1 1 0 0 0
416 1 -172.23507263375703 -453.62496040199454 -472.20454231048427 5 1 1 0 0 0
417 1 -171.92386482055647 -453.2244276901536 -472.0699667425569 5 1 1 0 0 0
418 4 -171.7659012434052 -452.8037559960741 -471.7989129218794 5 1 1 0 0 0
579 3 -170.62524808495547 -452.89008924215807 -470.65073268208204 6 1 1 0 0 0
580 2 -170.97478534481127 -453.26685555514507 -470.7568372951545 6 1 1 0 0 0
581 2 -171.44698472586344 -453.4926834916109 -470.79447806014645 6 1 1 0 0 0
582 2 -171.96850542753594 -453.5188303881516 -470.8466301173769 6 1 1 0 0 0
583 1 -172.44902364480973 -453.3653105397444 -470.9912718767782 6 1 1 0 0 0
419 3 -171.72632065167574 -452.4787793010892 -471.3887777441318 5 1 1 0 0 0
420 3 -171.7294985154484 -452.33238055085775 -470.88484853614983 5 1 1 0 0 0
421 3 -171.68508711759412 -452.38595224446766 -470.3647090924137 5 1 1 0 0 0
578 4 -170.42947701590538 -452.4631004213106 -470.41676350689534 6 1 1 0 0 0
423 1 -171.19950598061664 -452.85063741383294 -469.58540663317046 5 1 1 0 0 0
424 2 -170.747031363969 -453.04370889877026 -469.4027116345003 5 1 1 0 0 0
425 3 -170.228250383615 -453.07574610278095 -469.33041190056366 5 1 1 0 0 0
426 2 -169.73254346555615 -452.90669997054385 -469.29746655023513 5 1 1 0 0 0
422 2 -171.51912533874233 -452.5920302710409 -469.9115249416894 5 1 1 0 0 0
427 1 -169.3413458531055 -452.56576126333346 -469.21928365259413 5 1 1 0 0 0
428 1 -169.1001066890458 -452.14130918930437 -469.02684809943656 5 1 1 0 0 0
429 1 -169.00263933342512 -451.75047944289037 -468.69048584910405 5 1 1 0 0 0
574 4 -170.21245531230213 -452.0866622057465 -468.55151409528156 6 1 1 0 0 0
575 3 -170.34236689214674 -451.9115870929232 -469.02885990895874 6 1 1 0 0 0
576 2 -170.36643637413763 -451.9071507333886 -469.5530624636056 6 1 1 0 0 0
577 3 -170.36562928959725 -452.10389827505446 -470.0395571634794 6 1 1 0 0 0
430 2 -168.99325163363068 -451.49883041012754 -468.23008170604334 5 1 1 0 0 0
431 4 -168.98592262249284 -451.44399583414764 -467.7082323078291 5 1 1 0 0 0
432 1 -168.89392245648122 -451.57583956153246 -467.2086919785796 5 1 1 0 0 0
433 2 -168.6596764440635 -451.81994576395937 -466.8075332728921 5 1 1 0 0 0
571 3 -168.9988397177973 -452.64305962905803 -467.87653956366813 6 1 1 0 0 0
572 4 -169.5087987851984 -452.56351419344503 -467.97141639325616 6 1 1 0 0 0
573 4 -169.93218112941508 -452.34307421042996 -468.18945525226536 6 1 1 0 0 0
434 4 -168.27458996585818 -452.0632428332168 -466.5469526137135 5 1 1 0 0 0
435 3 -167.78200789374398 -452.1929377731091 -466.42074063194576 5 1 1 0 0 0
566 2 -167.62854317500995 -451.1023163036133 -466.8911417043709 6 1 1 0 0 0
567 1 -167.65296781278516 -451.3973615031534 -467.3244304150977 6 1 1 0 0 0
568 3 -167.78357395636255 -451.8079703070317 -467.62397971818893 6 1 1 0 0 0
569 4 -168.06464294907084 -452.2217737285022 -467.7825807562136 6 1 1 0 0 0
570 1 -168.48864666920204 -452.52530276557496 -467.84155794258317 6 1 1 0 0 0
436 2 -167.2622894805308 -452.1353546557596 -466.3764202629556 5 1 1 0 0 0
437 4 -166.80513794216205 -451.8813037438274 -466.33331638076294 5 1 1 0 0 0
562 3 -167.02235500629794 -451.5646861099006 -465.1342382967119 6 1 1 0 0 0
563 4 -167.37114310382768 -451.3097287882726 -465.4321157324387 6 1 1 0 0 0
564 1 -167.56614063525748 -451.08443975351565 -465.864097390728 6 1 1 0 0 0
565 3 -167.62945680390817 -450.99541122443486 -466.37737346005116 6 1 1 0 0 0
438 1 -166.47871259632024 -451.4892458289448 -466.2103349817154 5 1 1 0 0 0
439 2 -166.3061592962953 -451.06516219722846 -465.9538866019048 5 1 1 0 0 0
440 1 -166.25764052823763 -450.7260616759313 -465.5563389882209 5 1 1 0 0 0
557 3 -164.97309793764458 -450.726513768181 -464.5680014705372 6 1 1 0 0 0
558 1 -165.1841377252752 -451.1538267734841 -464.78766745124005 6 1 1 0 0 0
559 3 -165.54817976249453 -451.5194026261568 -464.88366240226935 6 1 1 0 0 0
560 4 -166.02912549261848 -451.7263787127863 -464.9188681373848 6 1 1 0 0 0
561 4 -166.5506224502705 -451.73250370161253 -464.97709826031075 6 1 1 0 0 0
441 1 -166.26060947972545 -450.5596905234079 -465.05864514208326 5 1 1 0 0 0
442 2 -166.22479036922323 -450.59431841464243 -464.5362418113004 5 1 1 0 0 0
1201 3 -348.32085229421193 -306.1287530278955 -465.9456361692823 13 1 1 0 0 0
1202 3 -348.0679568522589 -306.19165823591703 -465.4969455745291 13 1 1 0 0 0
1203 4 -347.6578713550769 -306.22510203206696 -465.16600975990605 13 1 1 0 0 0
1204 2 -347.17741551063335 -306.12604993254683 -464.97757404868594 13 1 1 0 0 0
1205 3 -346.7363665715688 -305.85391492931865 -464.8945822581516 13 1 1 0 0 0
1206 4 -346.4306680438474 -305.4301063510368 -464.8461373676778 13 1 1 0 0 0
1207 4 -346.3099098063892 -304.9284828039102 -464.7502202128241 13 1 1 0 0 0
1395 1 -347.50524575366603 -304.98261577825446 -464.5645603748418 14 1 1 0 0 0
1396 2 -347.5261312768515 -304.9748672456091 -465.0889246268551 14 1 1 0 0 0
1397 3 -347.4102334439815 -305.11792729873883 -465.5805221473584 14 1 1 0 0 0
1398 1 -347.2534796362666 -305.43513495934593 -465.96931708856374 14 1 1 0 0 0
1399 2 -347.16684998938416 -305.8910539413729 -466.2235513904582 14 1 1 0 0 0
1400 2 -347.2368595426629 -306.39047015293147 -466.3646458119052 14 1 1 0 0 0
1208 4 -346.36003595378975 -304.4497274263723 -464.54121181712696 13 1 1 0 0 0
443 4 -166.0732634612415 -450.7890042327826 -464.07307405776515 5 1 1 0 0 0
444 2 -165.76895114160098 -451.0476934850557 -463.73269012392524 5 1 1 0 0 0
445 1 -165.32738499824976 -451.25229312430844 -463.53635961633546 5 1 1 0 0 0
446 1 -164.8113577684603 -451.30333499271563 -463.45574965833237 5 1 1 0 0 0
447 1 -164.30930166845846 -451.1542260840734 -463.42268086095686 5 1 1 0 0 0
448 3 -163.90483818036964 -450.8272920969794 -463.3526038002911 5 1 1 0 0 0
553 2 -164.76261056451347 -450.2855457022317 -462.716191073096 6 1 1 0 0 0
554 4 -164.87915933963797 -450.12429807789744 -463.2017865078023 6 1 1 0 0 0
555 4 -164.8967108890721 -450.1397447336204 -463.7260390075407 6 1 1 0 0 0
556 4 -164.8984750895059 -450.3555844204076 -464.2043667787911 6 1 1 0 0 0
449 4 -163.64798433814897 -450.40608993919557 -463.17371225338 5 1 1 0 0 0
450 2 -163.53793016542622 -450.00663624869804 -462.85166851759266 5 1 1 0 0 0
1392 1 -346.4507115241626 -305.06683764795105 -463.5067169536645 14 1 1 0 0 0
1393 1 -346.92291985706163 -305.1252027328132 -463.728086799768 14 1 1 0 0 0
1394 1 -347.2990576012769 -305.0663608549661 -464.0892797616023 14 1 1 0 0 0
1391 1 -345.98938870549966 -304.83932355276363 -463.40276170706295 14 1 1 0 0 0
1209 4 -346.50814586626984 -304.08665458076297 -464.19244636861634 13 1 1 0 0 0
1210 4 -346.64759824432923 -303.8922447746166 -463.72538471165973 13 1 1 0 0 0
1211 4 -346.67472974618835 -303.86139747098196 -463.20222140724826 13 1 1 0 0 0
1212 1 -346.5245593887179 -303.9326962605178 -462.7044737782189 13 1 1 0 0 0
1387 2 -345.61688058894674 -303.0641538246452 -462.78796912527145 14 1 1 0 0 0
1388 2 -345.4843807300583 -303.463802703335 -463.1011973215023 14 1 1 0 0 0
1389 4 -345.47294872841985 -303.95813117778073 -463.2769699387687 14 1 1 0 0 0
1390 1 -345.642160088435 -304.44896233747096 -463.3533874705947 14 1 1 0 0 0
549 1 -163.06781946693675 -450.7680518044688 -461.9659707625308 6 1 1 0 0 0
550 3 -163.58212758636006 -450.8654266340674 -462.00328886002825 6 1 1 0 0 0
551 3 -164.08703664541565 -450.76822979596153 -462.10820290240633 6 1 1 0 0 0
451 2 -163.52331757786226 -449.7374589281443 -462.4014270469039 5 1 1 0 0 0
452 4 -163.51992471446087 -449.6622273049722 -461.88208512591274 5 1 1 0 0 0
453 2 -163.43966638244356 -449.7778286213149 -461.37653366924127 5 1 1 0 0 0
454 3 -163.22092477837134 -450.01543986216416 -460.9629150666417 5 1 1 0 0 0
455 2 -162.84976658891082 -450.2642258549951 -460.68771610641346 5 1 1 0 0 0
552 1 -164.49794279136657 -450.5389470187247 -462.3405235575948 6 1 1 0 0 0
456 3 -162.3647407034605 -450.40950358095154 -460.549760996586 5 1 1 0 0 0
457 4 -161.84360452333377 -450.372231430103 -460.5006162300356 5 1 1 0 0 0
544 1 -162.16160513429426 -449.21872417663474 -460.55141392871616 6 1 1 0 0 0
545 2 -162.15908943159252 -449.34596480584474 -461.0605218083039 6 1 1 0 0 0
546 3 -162.19090764322553 -449.65674824510484 -461.4821716569233 6 1 1 0 0 0
547 2 -162.33535714993596 -450.07307876835375 -461.76711125572035 6 1 1 0 0 0
548 3 -162.63195255533924 -450.4806172067115 -461.91316236424296 6 1 1 0 0 0
1213 3 -346.1931568674789 -304.00955326471274 -462.30490812385585 13 1 1 0 0 0
1214 3 -345.7389962424246 -303.99346684708166 -462.0424834780664 13 1 1 0 0 0
1215 4 -345.26282135315626 -303.81793895094137 -461.9089365842792 13 1 1 0 0 0
1216 1 -344.87295629789014 -303.4713726318963 -461.85162720325644 13 1 1 0 0 0
1217 1 -344.6480057701774 -303.0010652791527 -461.7916639330624 13 1 1 0 0 0
1382 2 -345.0115733903699 -302.9106386923976 -460.58964070165274 14 1 1 0 0 0
1383 1 -345.4428346683193 -302.89490412433594 -460.8882264900989 14 1 1 0 0 0
1384 4 -345.73127414258 -302.8095544608061 -461.31823282051914 14 1 1 0 0 0
1386 1 -345.7691850299137 -302.82476005694923 -462.3465154790755 14 1 1 0 0 0
1218 4 -344.6097887952499 -302.49692251926695 -461.651069195993 13 1 1 0 0 0
1219 3 -344.7158256991677 -302.06050065780846 -461.3796295647722 13 1 1 0 0 0
1220 3 -344.873965302129 -301.77003739688206 -460.97218594956286 13 1 1 0 0 0
1385 4 -345.8332113890834 -302.7560156425781 -461.83021888717076 14 1 1 0 0 0
458 1 -161.37654944973994 -450.13622591007146 -460.46126788458145 5 1 1 0 0 0
459 2 -161.03514492362092 -449.7537341716702 -460.3493287978164 5 1 1 0 0 0
460 2 -160.8476946383671 -449.32744354182825 -460.1074072629941 5 1 1 0 0 0
461 3 -160.78949061768378 -448.97512279213794 -459.72286894128985 5 1 1 0 0 0
462 4 -160.791321010307 -448.78907035423634 -459.2321872934186 5 1 1 0 0 0
463 2 -160.76330207915458 -448.80433283755383 -458.7083845293515 5 1 1 0 0 0
540 2 -161.1322270065945 -449.94438578023465 -459.10858496283436 6 1 1 0 0 0
541 3 -161.59442030403383 -449.7631643280725 -459.2786540094674 6 1 1 0 0 0
542 3 -161.92836837578443 -449.50575949736884 -459.59107804511285 6 1 1 0 0 0
543 4 -162.1083350387316 -449.28982206534914 -460.0342150050087 6 1 1 0 0 0
536 1 -159.5181236607497 -448.9905077455713 -458.71775686578906 6 1 1 0 0 0
537 1 -159.7446029600177 -449.41692854479027 -458.9233286745138 6 1 1 0 0 0
538 3 -160.1227780370292 -449.770316460355 -459.0098615110732 6 1 1 0 0 0
539 1 -160.61168384988648 -449.95800559921037 -459.0434953163395 6 1 1 0 0 0
1381 2 -344.5303491266329 -302.77930306412117 -460.4266637085564 14 1 1 0 0 0
1221 3 -344.9741156969389 -301.65351193923874 -460.4704100477063 13 1 1 0 0 0
1222 2 -344.9261526286851 -301.6790107992311 -459.9484553640723 13 1 1 0 0 0
1223 1 -344.6909523341401 -301.76571669895606 -459.4874236428842 13 1 1 0 0 0
1224 2 -344.2938631811237 -301.81173669961015 -459.14743878492357 13 1 1 0 0 0
1225 3 -343.8159773652692 -301.7291873981521 -458.9469441481408 13 1 1 0 0 0
1226 2 -343.3662081151161 -301.47445616536345 -458.85635187362243 13 1 1 0 0 0
1227 1 -343.04378717147523 -301.06321845410946 -458.80823098950344 13 1 1 0 0 0
1377 3 -343.8297481129376 -301.06009473498676 -459.95608910432276 14 1 1 0 0 0
1378 4 -343.753281575741 -301.5227236687253 -460.1917046341612 14 1 1 0 0 0
1379 3 -343.83756832448654 -302.0280400284254 -460.30545198644523 14 1 1 0 0 0
1380 2 -344.10922464653976 -302.4740833982095 -460.35678905398305 14 1 1 0 0 0
1228 1 -342.9040959315595 -300.5650402089672 -458.7205261829019 13 1 1 0 0 0
1229 1 -342.93959575451083 -300.0794239507251 -458.5248122287609 13 1 1 0 0 0
1374 4 -344.1059019615856 -300.5625802758591 -458.5725248893125 14 1 1 0 0 0
1375 3 -344.1099365799606 -300.5672000019637 -459.09726265194143 14 1 1 0 0 0
1376 2 -343.98499883706603 -300.7274149136858 -459.5811108533519 14 1 1 0 0 0
464 4 -160.62582822228126 -448.9866372923791 -458.2358875833619 5 1 1 0 0 0
465 4 -160.33698288311086 -449.2441925494913 -457.8814570554435 5 1 1 0 0 0
466 3 -159.90697184333075 -449.4592960347504 -457.67119927118847 5 1 1 0 0 0
467 4 -159.39460902592234 -449.52886275970246 -457.5815769879112 5 1 1 0 0 0
468 3 -158.88706486557498 -449.39992098137543 -457.54751406608614 5 1 1 0 0 0
469 4 -158.4698505698286 -449.0878521710175 -457.4848033925839 5 1 1 0 0 0
532 1 -159.3112405093016 -448.4853781837365 -456.8820000722814 6 1 1 0 0 0
533 2 -159.4149323284173 -448.33882863430387 -457.3751111913508 6 1 1 0 0 0
534 1 -159.42682282823594 -448.3744023514934 -457.89854262545185 6 1 1 0 0 0
535 2 -159.4320711769411 -448.6088676560331 -458.36799530181406 6 1 1 0 0 0
470 1 -158.19737370842589 -448.6710946515671 -457.3191022473641 5 1 1 0 0 0
471 3 -158.07420384068308 -448.2641346212027 -457.01153102486506 5 1 1 0 0 0
472 3 -158.05349906114688 -447.9780846701164 -456.57206080160205 5 1 1 0 0 0
1230 2 -343.08242377128045 -299.7015466817835 -458.1898551168954 13 1 1 0 0 0
1231 4 -343.2277603734103 -299.48948721431725 -457.73236698165846 13 1 1 0 0 0
1232 1 -343.26992216138177 -299.44422766429057 -457.2112515469299 13 1 1 0 0 0
1233 2 -343.13875232550504 -299.50931527561204 -456.70732157505637 13 1 1 0 0 0
1369 4 -342.2600525090293 -300.0796438501384 -457.31466012775047 14 1 1 0 0 0
1370 1 -342.62244886186585 -300.45571446249306 -457.36591554226766 14 1 1 0 0 0
1371 3 -343.0898699773799 -300.6655827396086 -457.4793181285611 14 1 1 0 0 0
1372 4 -343.5570059784883 -300.70902106670775 -457.7144444940621 14 1 1 0 0 0
1373 4 -343.9186451626675 -300.6431093087475 -458.08895761822697 14 1 1 0 0 0
1367 1 -342.06694623708023 -299.0961673017396 -457.0811702635506 14 1 1 0 0 0
1368 3 -342.07182720607216 -299.59482762154005 -457.2445758973077 14 1 1 0 0 0
1366 2 -342.1914512100162 -298.68333140619706 -456.7820843651738 14 1 1 0 0 0
531 4 -159.06219851229136 -448.73457145788495 -456.4930680275868 6 1 1 0 0 0
527 3 -157.2006963588757 -448.73822387342403 -456.0427837727062 6 1 1 0 0 0
528 3 -157.64780004056954 -449.0088436361244 -456.09022406567124 6 1 1 0 0 0
529 2 -158.16531866479596 -449.08578996897245 -456.1307342493861 6 1 1 0 0 0
530 2 -158.66430647760794 -448.97158519710933 -456.24630142591883 6 1 1 0 0 0
473 2 -158.05313525725867 -447.8824239450404 -456.0560799561527 5 1 1 0 0 0
474 2 -157.98398422825707 -447.98107412116667 -455.5453220707682 5 1 1 0 0 0
475 1 -157.78060354933896 -448.2110490363051 -455.1197222852975 5 1 1 0 0 0
476 4 -157.42377061935775 -448.4641429640277 -454.8298929158817 5 1 1 0 0 0
477 3 -156.9471016547306 -448.62418951729836 -454.67969591694174 5 1 1 0 0 0
526 4 -156.8887071193577 -448.33809669010094 -455.90881254021724 6 1 1 0 0 0
478 4 -156.42547648533363 -448.60706167774805 -454.6249130791995 5 1 1 0 0 0
479 1 -155.9492548879781 -448.3896395830101 -454.58847185972917 5 1 1 0 0 0
523 1 -156.69317899082264 -447.444079589407 -454.7253710770084 6 1 1 0 0 0
524 2 -156.68998925372114 -447.59150340465374 -455.22900128243873 6 1 1 0 0 0
525 1 -156.73000733400036 -447.91722189523557 -455.6385050769113 6 1 1 0 0 0
1234 4 -342.82377801633135 -299.59030101980534 -456.2954722903147 13 1 1 0 0 0
1235 3 -342.37781650211696 -299.58726160174416 -456.0188924115778 13 1 1 0 0 0
1236 2 -341.898788390976 -299.4292064411235 -455.874192810744 13 1 1 0 0 0
1237 4 -341.4960002424789 -299.0985221383749 -455.8125735045784 13 1 1 0 0 0
1363 4 -342.3406018557067 -298.3868002997228 -455.3233674940822 14 1 1 0 0 0
1364 1 -342.4239460213471 -298.34190223514514 -455.839531473257 14 1 1 0 0 0
1365 3 -342.34683176223643 -298.42643618857176 -456.351678660406 14 1 1 0 0 0
1238 1 -341.2525066097982 -298.63703736589036 -455.75662714498947 13 1 1 0 0 0
1239 2 -341.1965115385181 -298.13161983659717 -455.6269929958626 13 1 1 0 0 0
1240 1 -341.2916569566253 -297.68426480248917 -455.3696835276804 13 1 1 0 0 0
1241 1 -341.44954199253823 -297.3769746280738 -454.97467415603484 13 1 1 0 0 0
1361 4 -341.6493027774085 -298.50046453195296 -454.56956400718866 14 1 1 0 0 0
1362 3 -342.06985841460244 -298.4736332999262 -454.8822945310517 14 1 1 0 0 0
480 2 -155.59316264880846 -448.01777147992823 -454.4869840739861 5 1 1 0 0 0
481 2 -155.3905609392591 -447.5904866172567 -454.2594592776122 5 1 1 0 0 0
482 1 -155.32195893259373 -447.22589611470477 -453.8883058461672 5 1 1 0 0 0
483 1 -155.32172515698372 -447.02052329619136 -453.40538836842046 5 1 1 0 0 0
484 2 -155.30068663848257 -447.01606743385577 -452.8810555870532 5 1 1 0 0 0
518 4 -155.19456800381164 -448.18755943590236 -453.1684464228699 6 1 1 0 0 0
519 4 -155.71323068473853 -448.1545419221457 -453.241152727617 6 1 1 0 0 0
520 3 -156.1651649514975 -447.9608580211319 -453.42453567273793 6 1 1 0 0 0
521 3 -156.4840079700815 -447.70221723157056 -453.7513864200532 6 1 1 0 0 0
522 4 -156.64922473978638 -447.4966959132676 -454.20509529838284 6 1 1 0 0 0
515 1 -154.06459547761506 -447.2549628680323 -452.8660274155004 6 1 1 0 0 0
516 1 -154.3066303350873 -447.67927823428124 -453.05776405179785 6 1 1 0 0 0
517 3 -154.69851660016403 -448.01952395315874 -453.13551587342647 6 1 1 0 0 0
1242 2 -341.56016239513264 -297.2435225934475 -454.47935504624076 13 1 1 0 0 0
1243 4 -341.52978873051126 -297.25782360784615 -453.95565641054225 13 1 1 0 0 0
1244 2 -341.313240606865 -297.3429161916051 -453.4852804950459 13 1 1 0 0 0
1245 1 -340.9294438166033 -297.3974629253605 -453.1315687237334 13 1 1 0 0 0
1246 1 -340.45491354376526 -297.3306443625024 -452.917691096657 13 1 1 0 0 0
1357 3 -340.34410209432673 -297.1587446756404 -454.16434983965087 14 1 1 0 0 0
1358 1 -340.44699431980223 -297.6626561600909 -454.2686270918227 14 1 1 0 0 0
1359 3 -340.73632522903796 -298.09766420640193 -454.31805344257435 14 1 1 0 0 0
1360 4 -341.16810744660495 -298.3860179369771 -454.3942346883219 14 1 1 0 0 0
1247 1 -339.9974075895646 -297.0934312466752 -452.8186679726214 13 1 1 0 0 0
1353 2 -340.70468479429326 -296.1434418859473 -452.5809674224063 14 1 1 0 0 0
1354 4 -340.69243635977443 -296.1611961570254 -453.10529756769097 14 1 1 0 0 0
1355 4 -340.5595562841988 -296.33890200190575 -453.5808507800171 14 1 1 0 0 0
1356 4 -340.4074387622738 -296.68740642270035 -453.94250291640935 14 1 1 0 0 0
1248 3 -339.6588217045654 -296.69546694858616 -452.7699714073622 13 1 1 0 0 0
1249 4 -339.50010342386 -296.201746926212 -452.68974431454455 13 1 1 0 0 0
485 4 -155.17683418204422 -447.185045273514 -452.39991693919376 5 1 1 0 0 0
486 4 -154.9035609204472 -447.4402544517021 -452.03170865594836 5 1 1 0 0 0
487 4 -154.48571064023923 -447.66480022857445 -451.80728121129846 5 1 1 0 0 0
488 3 -153.9779099013482 -447.7523463135271 -451.7079764563876 5 1 1 0 0 0
489 3 -153.46575825868473 -447.643730058853 -451.6720522525027 5 1 1 0 0 0
490 4 -153.0363534281345 -447.3473341663691 -451.61594238466034 5 1 1 0 0 0
510 4 -153.6249211799393 -446.93007050766937 -450.6470763886893 6 1 1 0 0 0
514 1 -153.9664993716004 -446.863666475682 -452.53039126182676 6 1 1 0 0 0
491 1 -152.7483005761753 -446.93620018654815 -451.46303126257067 5 1 1 0 0 0
511 1 -153.85837363689546 -446.6862676774983 -451.0488818739177 6 1 1 0 0 0
512 2 -153.94975995363689 -446.55523466804823 -451.54874810343 6 1 1 0 0 0
513 2 -153.95686636383104 -446.6111081250844 -452.0704903751127 6 1 1 0 0 0
492 1 -152.61153224330926 -446.5228777095355 -451.1700345852124 5 1 1 0 0 0
493 4 -152.5838861505248 -446.22067011819723 -450.74190135029346 5 1 1 0 0 0
1352 1 -340.5364449607918 -296.21971543162755 -452.0897800404462 14 1 1 0 0 0
1250 2 -339.52026576242963 -295.71023858295433 -452.50698663850085 13 1 1 0 0 0
1251 2 -339.6567270675894 -295.31814776603073 -452.18600308281054 13 1 1 0 0 0
1252 4 -339.8068600057571 -295.08844749453885 -451.73869421222713 13 1 1 0 0 0
1253 2 -339.8633296361308 -295.02819421192345 -451.2204586843815 13 1 1 0 0 0
1254 3 -339.75105247334733 -295.0860980130403 -450.71111761193805 13 1 1 0 0 0
1347 2 -338.67259374323487 -295.2313815078689 -451.2112208534126 14 1 1 0 0 0
1348 3 -338.87973853237247 -295.7092055306692 -451.2757389060076 14 1 1 0 0 0
1349 1 -339.2565906060095 -296.07039390805676 -451.3297093625735 14 1 1 0 0 0
1350 3 -339.72902608171034 -296.26261437956344 -451.45317332970103 14 1 1 0 0 0
1351 3 -340.1900084680113 -296.2917160687836 -451.7022429399505 14 1 1 0 0 0
1345 2 -338.76633978401264 -294.3041148433185 -450.7748472945755 14 1 1 0 0 0
1346 3 -338.650844143824 -294.72941571094964 -451.059745993471 14 1 1 0 0 0
509 4 -153.2405334803407 -447.1736761792135 -450.3857507239353 6 1 1 0 0 0
498 1 -151.52782254140863 -446.8366411473676 -448.80960988553437 5 1 1 0 0 0
499 1 -151.00275365500164 -446.838659440146 -448.7440318009874 5 1 1 0 0 0
506 2 -151.7707901999393 -446.9944816982353 -450.17145788231085 6 1 1 0 0 0
507 2 -152.2284825516799 -447.24763022180196 -450.2143807400137 6 1 1 0 0 0
508 1 -152.74830932299534 -447.30418099857724 -450.25894517786986 6 1 1 0 0 0
494 3 -152.58562373337375 -446.1046215540338 -450.23010838780795 5 1 1 0 0 0
495 3 -152.52688413954797 -446.185677392479 -449.7149403913697 5 1 1 0 0 0
496 4 -152.33860762158585 -446.4069067257685 -449.2778321113092 5 1 1 0 0 0
497 1 -151.99626075802666 -446.6630515908096 -448.9732749873488 5 1 1 0 0 0
502 4 -151.218963236396 -445.6720578808761 -448.89438721582775 6 1 1 0 0 0
503 4 -151.22057689404235 -445.83894222562367 -449.39534043468706 6 1 1 0 0 0
504 4 -151.27017238648355 -446.17868052353225 -449.79317875637645 6 1 1 0 0 0
505 1 -151.44356400693522 -446.6028944833024 -450.04900511588846 6 1 1 0 0 0
500 1 -150.51808380264433 -446.64726590053573 -448.6921745653202 5 1 1 0 0 0
1255 2 -339.4530502794727 -295.1701834990665 -450.2874294447357 13 1 1 0 0 0
1256 3 -339.01629624749836 -295.1794600285652 -449.99665943063235 13 1 1 0 0 0
1257 4 -338.5355405369449 -295.03869622252836 -449.8403045866977 13 1 1 0 0 0
1341 3 -338.6953394171711 -294.0517445862269 -448.8776842233688 14 1 1 0 0 0
1342 3 -338.947999758973 -293.96447797840773 -449.3292754438168 14 1 1 0 0 0
1343 4 -339.01302827668076 -293.9291216995934 -449.84880269524365 14 1 1 0 0 0
1344 1 -338.92367252014986 -294.0298872715262 -450.35600008071793 14 1 1 0 0 0
1258 1 -338.1206845784815 -294.72432468122156 -449.7735782254215 13 1 1 0 0 0
1259 2 -337.8589382817882 -294.2725570396749 -449.7208315310955 13 1 1 0 0 0
1260 2 -337.78479070408645 -293.76691507287813 -449.6016020142787 13 1 1 0 0 0
1261 3 -337.86813429734667 -293.30947131427655 -449.35831947745345 13 1 1 0 0 0
1262 4 -338.0246319587758 -292.9857020185843 -448.9761293877329 13 1 1 0 0 0
501 4 -151.162499825916 -445.69551415618895 -448.3791221325936 6 1 1 0 0 0
1340 2 -338.28640770589647 -294.0888355134367 -448.550902249912 14 1 1 0 0 0
1265 4 -337.93380657768836 -292.91980112762906 -447.4843387372247 13 1 1 0 0 0
1266 3 -337.5640900921709 -292.9819393493236 -447.11713865377885 13 1 1 0 0 0
1267 4 -337.0940250361707 -292.9303466290724 -446.8896207997759 13 1 1 0 0 0
1337 1 -337.0583402329716 -293.2965627343948 -448.23123735076996 14 1 1 0 0 0
1338 3 -337.3648927539387 -293.7197347902499 -448.27959334909616 14 1 1 0 0 0
1339 1 -337.8063746154706 -293.9909419399978 -448.3628266802063 14 1 1 0 0 0
1263 2 -338.1447571573809 -292.8350547865949 -448.48800779663276 13 1 1 0 0 0
1264 4 -338.13150763543536 -292.83736541751847 -447.96340656645935 13 1 1 0 0 0
1268 3 -336.62983168521146 -292.71075093620397 -446.7815023270474 13 1 1 0 0 0
1333 2 -337.27369389288003 -291.75683946961783 -447.112830185835 14 1 1 0 0 0
1334 1 -337.13391562696876 -291.9521479484684 -447.57941777033625 14 1 1 0 0 0
1335 2 -336.98604366365174 -292.3159830349569 -447.92747703519177 14 1 1 0 0 0
1336 1 -336.9366344133472 -292.79510111684976 -448.1357843301432 14 1 1 0 0 0
1269 4 -336.27570848750656 -292.3267293648457 -446.7313871285345 13 1 1 0 0 0
1270 1 -336.097953002182 -291.83847641900144 -446.657906601486 13 1 1 0 0 0
1329 2 -336.36806424382684 -291.85796624654193 -445.428321999076 14 1 1 0 0 0
1330 2 -336.8218313809451 -291.87336993413675 -445.69146730346966 14 1 1 0 0 0
1331 4 -337.1524097162117 -291.7962775527276 -446.0916698378525 14 1 1 0 0 0
1332 1 -337.3016089856427 -291.72527178052223 -446.5897512547494 14 1 1 0 0 0
1271 3 -336.1021333998178 -291.3420770020902 -446.48773761867915 13 1 1 0 0 0
1272 3 -336.23117115234857 -290.9364211239753 -446.1808501694064 13 1 1 0 0 0
1327 3 -335.50117217610483 -291.33756611466487 -445.2367090666848 14 1 1 0 0 0
1328 3 -335.89171665381815 -291.68333334723843 -445.29421881672187 14 1 1 0 0 0
1273 2 -336.384995107279 -290.6891527146629 -445.74429105062643 13 1 1 0 0 0
1274 2 -336.45499938149044 -290.6133775236373 -445.2297574156111 13 1 1 0 0 0
1275 1 -336.3614400524303 -290.6631503655728 -444.71579568970617 13 1 1 0 0 0
1324 2 -335.34165919020273 -289.92645401078096 -444.7662308420833 14 1 1 0 0 0
1325 1 -335.2361553816459 -290.3634536042069 -445.0369477445297 14 1 1 0 0 0
1326 4 -335.275269452503 -290.8676867857974 -445.17697034123677 14 1 1 0 0 0
1276 4 -336.0808936968079 -290.74929560681704 -444.2807553705365 13 1 1 0 0 0
1277 3 -335.65432287013397 -290.7701133623112 -443.9758106371327 13 1 1 0 0 0
1278 4 -335.1729713087589 -290.6463982172835 -443.8073393434459 13 1 1 0 0 0
1279 1 -334.7469456150204 -290.3487123394516 -443.7347269067932 13 1 1 0 0 0
1280 2 -334.4673018174986 -289.90752192366625 -443.68435128697377 13 1 1 0 0 0
1281 2 -334.37469169032175 -289.4027066471459 -443.57493355312977 13 1 1 0 0 0
1320 3 -335.31921116040115 -289.6293391708276 -442.874359182761 14 1 1 0 0 0
1321 3 -335.5534654575978 -289.5426902219392 -443.3358829886957 14 1 1 0 0 0
1322 4 -335.60052070570333 -289.5177429266359 -443.8579469461068 14 1 1 0 0 0
1323 1 -335.49981326123424 -289.63512464038195 -444.35941168410164 14 1 1 0 0 0
1282 1 -334.44536496778846 -288.93605438581466 -443.3455249778916 13 1 1 0 0 0
1283 1 -334.5993473667971 -288.5962121943779 -442.97649375256685 13 1 1 0 0 0
1318 4 -334.4450387791572 -289.59408118557 -442.3324983218723 14 1 1 0 0 0
1319 4 -334.92278044295006 -289.6758164446042 -442.5336688705607 14 1 1 0 0 0
1317 3 -333.9948497611001 -289.34024046202484 -442.24149241711814 14 1 1 0 0 0
1284 2 -334.7279784465514 -288.42816211705576 -442.49628488507375 13 1 1 0 0 0
1285 4 -334.7313270856748 -288.4177323432141 -441.9716256183538 13 1 1 0 0 0
1286 4 -334.5526011586233 -288.4964770426819 -441.4845489762385 13 1 1 0 0 0
1287 4 -334.19770299174155 -288.5652445876276 -441.1041470093709 13 1 1 0 0 0
1288 3 -333.733196991908 -288.52831882240474 -440.8627800569134 13 1 1 0 0 0
1289 3 -333.26338926254675 -288.326377384039 -440.74493398277156 13 1 1 0 0 0
1312 2 -333.8537994704165 -287.35416895663604 -441.11978105803615 14 1 1 0 0 0
1313 2 -333.7081916194101 -287.567129355153 -441.57676417010686 14 1 1 0 0 0
1314 1 -333.5656625182372 -287.9457468134939 -441.911012006984 14 1 1 0 0 0
1315 1 -333.53092884948813 -288.4316876480538 -442.106056663137 14 1 1 0 0 0
1316 1 -333.67158966986216 -288.9296630942449 -442.1933626112152 14 1 1 0 0 0
1290 4 -332.8944114703057 -287.95691840387485 -440.6925622187962 13 1 1 0 0 0
1291 1 -332.6976760995872 -287.47512194038217 -440.6250731988556 13 1 1 0 0 0
1307 2 -332.5277122143862 -287.29448857515143 -439.2594922096694 14 1 1 0 0 0
1308 1 -333.00686313191665 -287.45167085240183 -439.40479183663524 14 1 1 0 0 0
1309 4 -333.4523840952773 -287.4540711243812 -439.6821022860759 14 1 1 0 0 0
1310 4 -333.76650647651314 -287.37290231353415 -440.0945674162678 14 1 1 0 0 0