LAMMPS data file via write_data, version 4 Feb 2025, timestep = 5000, units = lj

2000 atoms
4 atom types
1998 bonds
1 bond types
2000 ellipsoids

0 1169 xlo xhi
0 1169 ylo yhi
0 1169 zlo zhi

Masses

1 3.1575
2 3.1575
3 3.1575
4 3.1575

Atoms # hybrid/kk

996 2 78.91641359639398 0.3562429911732751 1.5590512349051027 1 1 1 0 0 0
997 3 79.21717062151708 0.57213142270546 1.169288546941675 1 1 1 0 0 0
998 2 79.58738177386707 0.5706580030843998 0.7795258865936978 1 1 1 0 0 0
999 4 79.88641595329807 0.35236646358301804 0.38975047735328316 1 1 1 0 0 0
1001 4 78.80004063701072 0.0010749337699435012 1168.9993197385722 2 1 1 0 0 -1
1000 1 80.00066024217192 1168.999150877722 1168.9993197285112 1 1 1 0 -1 -1
1002 1 78.91332981321425 1168.6480102964651 0.3897506551414452 2 1 1 0 -1 0
1003 3 79.21218373860198 1168.4294858605638 0.7795255197091314 2 1 1 0 -1 0
1004 2 79.58239412510306 1168.4277284995997 1.1692884991155497 2 1 1 0 -1 0
1005 3 79.88330910806772 1168.6433870364065 1.559051578415558 2 1 1 0 -1 0
995 3 78.79938933094967 0.005011340768166816 1.9488143327896297 1 1 1 0 0 0
1007 4 79.88972694039481 0.34774860349787823 2.338576862865071 2 1 1 0 0 0
1008 1 79.59278998508033 0.5688538869372999 2.728340308990278 2 1 1 0 0 0
1009 2 79.22260482066369 0.5738412185983243 3.1181024978163583 2 1 1 0 0 0
1010 3 78.91981952427889 0.3608172584142846 3.5078656164091586 2 1 1 0 0 0
991 2 79.88045961188719 1168.6395504096479 3.5078653931663095 1 1 1 0 -1 0
992 3 79.57783102946144 1168.4262951093706 3.1181032347629563 1 1 1 0 -1 0
993 4 79.20764809026015 1168.4309988126954 2.7283396964576467 1 1 1 0 -1 0
994 1 78.91054272473026 1168.6518761771868 2.3385770033943456 1 1 1 0 -1 0
1006 2 80.00060966908104 1168.9945284368696 1.948814213402052 2 1 1 0 -1 0
986 1 78.92270366780552 0.36462853418710583 5.456679597653911 1 1 1 0 0 0
987 1 79.22718198443874 0.575235114241941 5.066917091003056 1 1 1 0 0 0
988 3 79.59731192441446 0.5673008917335755 4.677154134432127 1 1 1 0 0 0
989 4 79.89247891722388 0.34383919848307043 4.287391035039954 1 1 1 0 0 0
1011 1 78.79946399277037 0.010712471592587954 3.897628601470524 2 1 1 0 0 0
1012 1 78.90725352720084 1168.6565378128241 4.287391346861519 2 1 1 0 -1 0
1013 2 79.20225641500258 1168.4328506320674 4.677153927280317 2 1 1 0 -1 0
1014 4 79.57238014326056 1168.424632464985 5.066916871734694 2 1 1 0 -1 0
1015 4 79.87701255354479 1168.635006333359 5.456679934262952 2 1 1 0 -1 0
990 4 80.00054696402512 1168.9897476376466 3.897628655760525 1 1 1 0 -1 0
985 3 78.79956853157009 0.015492780426052892 5.846442710771486 1 1 1 0 0 0
1017 3 79.89571891889715 0.3391488370385524 6.236205507495955 2 1 1 0 0 0
1018 1 79.60268744608932 0.5654022369972979 6.625968344794635 2 1 1 0 0 0
1019 4 79.2326488587711 0.5768499580871782 7.015731315731867 2 1 1 0 0 0
1020 2 78.92619212372422 0.3691424238628226 7.4054943735470875 2 1 1 0 0 0
981 3 79.87409348825587 1168.631220687202 7.405494346778352 1 1 1 0 -1 0
982 1 79.56779586023205 1168.423278288134 7.015731140991654 1 1 1 0 -1 0
983 4 79.19774865403346 1168.4344427167628 6.625968268470909 1 1 1 0 -1 0
984 2 78.90453679003512 1168.6604712183769 6.236205875671567 1 1 1 0 -1 0
1016 2 80.00042240748589 1168.9840473383506 5.846442751024168 2 1 1 0 -1 0
977 2 79.23724691792158 0.5781636611387615 8.964545436608876 1 1 1 0 0 0
978 1 79.60718153700633 0.5637708305057221 8.574781982744412 1 1 1 0 0 0
979 3 79.89840834975114 0.3351921913772513 8.185019790968836 1 1 1 0 0 0
1021 4 78.79974306929418 0.021191866968731685 7.795257007327757 2 1 1 0 0 0
1022 2 78.90133765413795 1168.6651899382482 8.185019460116987 2 1 1 0 -1 0
1023 4 79.19238314849183 1168.4363877244991 8.574782769549048 2 1 1 0 -1 0
1024 3 79.56231227596425 1168.421711865537 8.964544772815916 2 1 1 0 -1 0
980 1 80.00027615269354 1168.979267998665 7.795257040513649 1 1 1 0 -1 0
975 1 78.79992359148669 0.025969420572988323 9.744071064623164 1 1 1 0 0 0
976 4 78.92914643809229 0.3729025924841442 9.354308137400482 1 1 1 0 0 0
1027 2 79.90156584542763 0.3304458289539118 10.13383394522144 2 1 1 0 0 0
1028 4 79.61252282220514 0.5617787795301143 10.523596831843637 2 1 1 0 0 0
1029 3 79.24273926218945 0.5796825950768484 10.913359458231687 2 1 1 0 0 0
972 2 79.55770022591187 1168.4204379235227 10.913359518445793 1 1 1 0 -1 0
973 1 79.18790334217617 1168.4380585253411 10.523597114956914 1 1 1 0 -1 0
974 3 78.8986900568796 1168.6691703574868 10.133833589941812 1 1 1 0 -1 0
1025 1 79.87057107107744 1168.6267368728948 9.354308275917687 2 1 1 0 -1 0
1026 4 80.00005181860587 1168.9735708924818 9.744071030080981 2 1 1 0 -1 0
967 4 79.24735848464013 0.5809165204223062 12.862173685763338 1 1 1 0 0 0
968 3 79.61698886750126 0.5600691481064208 12.472411181595174 1 1 1 0 0 0
969 3 79.90417832699303 0.326442541304891 12.082648293570744 1 1 1 0 0 0
1030 1 78.93270259118754 0.3773554322104608 11.303122514965091 2 1 1 0 0 0
1031 4 78.80019761742587 0.031664581689178954 11.692885366591797 2 1 1 0 0 0
971 4 79.86758172562841 1168.6230027222239 11.303122558445017 1 1 1 0 -1 0
1032 2 78.89556712329454 1168.6739436761754 12.082648326474263 2 1 1 0 -1 0
1033 2 79.18257768683709 1168.4400971023836 12.472411260943755 2 1 1 0 -1 0
1034 1 79.55219213715766 1168.4189671328702 12.862173948244214 2 1 1 0 -1 0
970 1 79.99982183222502 1168.9687948939288 11.692885372246938 1 1 1 0 -1 0
965 4 78.80046944242349 0.036438316464697924 13.641699753604529 1 1 1 0 0 0
966 3 78.9357265363033 0.38106293966105564 13.25193726080688 1 1 1 0 0 0
1037 2 79.90725256413273 0.32164166955419043 14.031462492601902 2 1 1 0 0 0
1038 3 79.62229722690083 0.5579844454779868 14.421225796896218 2 1 1 0 0 0
1039 4 79.25288245989621 0.5823387820942579 14.81098850229344 2 1 1 0 0 0
962 1 79.54756614853747 1168.4177736421327 14.810988082752191 1 1 1 0 -1 0
963 2 79.17813302596868 1168.4418457899455 14.421225511487485 1 1 1 0 -1 0
964 3 78.89298964265974 1168.6779696046756 14.03146275531996 1 1 1 0 -1 0
1035 2 79.8639842682993 1168.6185811198804 13.251936941436433 2 1 1 0 -1 0
1036 1 79.99949789174913 1168.963102505885 13.641699781135218 2 1 1 0 -1 0
958 2 79.62672880001723 0.55619679068649 16.37003853297368 1 1 1 0 0 0
959 4 79.90980250205904 0.3175939478861263 15.98027741106037 1 1 1 0 0 0
1040 2 78.93935824040123 0.3854535050773314 15.200751074038319 2 1 1 0 0 0
1041 4 78.80084313911205 0.042127627396399824 15.590514208503382 2 1 1 0 0 0
961 3 79.86093285766836 1168.6149000105922 15.20075163625047 1 1 1 0 -1 0
1042 1 78.8899569705853 1168.6827969058854 15.980277069537694 2 1 1 0 -1 0
1043 3 79.17284172887084 1168.4439767419262 16.37003933588543 2 1 1 0 -1 0
960 1 79.99918437614623 1168.9583311036795 15.590514021330042 1 1 1 0 -1 0
955 3 78.8011986649422 0.046895742220396684 17.53932774797368 1 1 1 0 0 0
956 2 78.94244474099004 0.38910823488399104 17.149564626600064 1 1 1 0 0 0
957 3 79.25752226448371 0.5834914609434187 16.759802125188035 1 1 1 0 0 0
1047 4 79.91279387103556 0.31274007900441214 17.929090496003987 2 1 1 0 0 0
1048 1 79.6320031092919 0.5540196164645902 18.31885344155094 2 1 1 0 0 0
953 4 79.1684245708679 1168.4458028452566 18.318853544315978 1 1 1 0 -1 0
954 1 78.88744869854928 1168.6868673806205 17.929090298754186 1 1 1 0 -1 0
1044 2 79.5420329123369 1168.4163995852814 16.759801482934034 2 1 1 0 -1 0
1045 3 79.85726026161349 1168.6105415413574 17.149564789054182 2 1 1 0 -1 0
1046 2 79.99876835598896 1168.9526453691826 17.539327597981902 2 1 1 0 -1 0
948 3 79.63640608344019 0.5521550345028576 20.26766796826073 1 1 1 0 0 0
949 4 79.91526702811099 0.30864816564478137 19.877904995906565 1 1 1 0 0 0
1049 2 79.26307165915539 0.5848176948480465 18.708616422301503 2 1 1 0 0 0
1050 3 78.94615866493274 0.39343404879117655 19.098378888907057 2 1 1 0 0 0
1051 1 78.80167197590727 0.052577793556458384 19.488142120464513 2 1 1 0 0 0
951 2 79.85414582147497 1168.6069136042167 19.098378943629363 1 1 1 0 -1 0
952 3 79.53737916047679 1168.4152874559566 18.708616358540556 1 1 1 0 -1 0
1052 1 78.8844996106729 1168.6917468392787 19.87790480592633 2 1 1 0 -1 0
1053 2 79.1631737277335 1168.4480260883108 20.26766774319932 2 1 1 0 -1 0
950 4 79.9983711476143 1168.947880414866 19.48814200938562 1 1 1 0 -1 0
945 1 78.80211107957493 0.057339432087998916 21.436956308504328 1 1 1 0 0 0
946 3 78.9493074771053 0.39703388843545245 21.04719382748744 1 1 1 0 0 0
947 1 79.26772594372414 0.5858896472360139 20.657430152732406 1 1 1 0 0 0
1058 1 79.64163295416833 0.549885746892974 22.216481678144174 2 1 1 0 0 0
1057 2 79.91817466680001 0.30374328898919983 21.826719507280238 2 1 1 0 0 0
943 4 79.1587844247619 1168.4499288599568 22.216482266627196 1 1 1 0 -1 0
944 3 78.882061030399 1168.6958601488152 21.826719274385486 1 1 1 0 -1 0
1054 4 79.53182138710079 1168.4140095469552 20.657430756710525 2 1 1 0 -1 0
1055 2 79.85039105844707 1168.6026206576216 21.047193531093356 2 1 1 0 -1 0
1056 4 79.99784780120272 1168.9422026572681 21.436956345346214 2 1 1 0 -1 0
1059 4 79.27329887151853 0.5871186619178922 22.606245388391688 2 1 1 0 0 0
1060 2 78.95309613365411 0.40129447549307223 22.996007981891704 2 1 1 0 0 0
1061 1 78.80267669190806 0.0630124453920835 23.385770605845828 2 1 1 0 0 0
939 4 79.92057092549167 0.2996084278129282 23.775533709236935 1 1 1 0 0 0
941 3 79.84721395631577 1168.5990475025749 22.9960076385823 1 1 1 0 -1 0
942 1 79.52715352171755 1168.4129789212216 22.60624518518476 1 1 1 0 -1 0
1062 1 78.87919507360891 1168.7007902788025 23.775533764378498 2 1 1 0 -1 0
940 4 79.99736692186333 1168.937445574358 23.385770945043166 1 1 1 0 -1 0
935 1 78.80319932205258 0.06776498346920412 25.334585348849664 1 1 1 0 0 0
936 1 78.95630074402231 0.4048397191629143 24.94482214422164 1 1 1 0 0 0
937 1 79.27797360123182 0.5881083643803756 24.555059718666236 1 1 1 0 0 0
938 4 79.64600106335578 0.5479452842788447 24.165296263687218 1 1 1 0 0 0
1067 4 79.92339528418584 0.2946535160678732 25.72434816389855 2 1 1 0 0 0
934 1 78.876833163324 1168.7049460345652 25.724347734240688 1 1 1 0 -1 0
1063 1 79.15357527242394 1168.4522432736424 24.165296661760305 2 1 1 0 -1 0
1064 4 79.52157813595892 1168.4117982090265 24.55505914398316 2 1 1 0 -1 0
1065 4 79.84338476100632 1168.5948207828637 24.944822467224302 2 1 1 0 -1 0
1066 4 79.99674405904342 1168.9317776734042 25.334585199294782 2 1 1 0 -1 0
1068 4 79.65119323851859 0.5455851068493076 26.114110634847968 2 1 1 0 0 0
1069 2 79.2835642315737 0.5892404200237408 26.503874308750277 2 1 1 0 0 0
1070 3 78.96016430677868 0.4090332568003502 26.893636315669994 2 1 1 0 0 0
1071 2 78.8038718844311 0.07342718345597209 27.28339967623742 2 1 1 0 0 0
929 3 79.92572218538108 0.2904774699825215 27.67316240023909 1 1 1 0 0 0
931 2 79.84014479265602 1168.591304034543 26.89363673096617 1 1 1 0 -1 0
932 3 79.51688931130172 1168.4108490027825 26.50387373005283 1 1 1 0 -1 0
933 1 79.14922106586326 1168.4542222493315 26.11411133215372 1 1 1 0 -1 0
1072 2 78.87405095294795 1168.7099251022469 27.673162556620714 2 1 1 0 -1 0
930 3 79.99618708329426 1168.9270293854693 27.283399595630407 1 1 1 0 -1 0
925 1 78.80447073871302 0.07817063482205322 29.23221386466852 1 1 1 0 0 0
926 2 78.96343847349998 0.41252100800146985 28.84245144541685 1 1 1 0 0 0
927 4 79.28825360044523 0.5901488866664967 28.45268787704942 1 1 1 0 0 0
928 1 79.6555261498784 0.5435683856213176 28.0629254018923 1 1 1 0 0 0
1077 1 79.9284554357032 0.2854740833990871 29.62197689899658 2 1 1 0 0 0
924 4 78.87175866944261 1168.7141212967 29.621976778958064 1 1 1 0 -1 0
1073 4 79.14405273107892 1168.4566276310766 28.062925192808173 2 1 1 0 -1 0
1074 1 79.51129023796055 1168.409765966655 28.45268831396005 2 1 1 0 -1 0
1075 3 79.83624817057168 1168.5871442821817 28.842451083867438 2 1 1 0 -1 0
1076 4 79.99546460336046 1168.921373360553 29.232213962822808 2 1 1 0 -1 0
1078 3 79.6606767749769 0.5411183333454064 30.011739808983382 2 1 1 0 0 0
1079 1 79.29386117942752 0.5911826274151614 30.40150245296691 2 1 1 0 0 0
1080 3 78.96736886578995 0.4166470017885097 30.79126544667361 2 1 1 0 0 0
1081 2 78.80524298621938 0.08381983434729232 31.181028489567392 2 1 1 0 0 0
919 1 79.9307127495498 0.2812582438452134 31.570791387488157 1 1 1 0 0 0
921 2 79.8329456090826 1168.5836847259152 30.79126558228936 1 1 1 0 -1 0
922 4 79.50658711202101 1168.4088987521307 30.40150250818728 1 1 1 0 -1 0
923 2 79.13973339066601 1168.458682144451 30.01173994551032 1 1 1 0 -1 0
1082 4 78.86907472389196 1168.7191487688262 31.570791018824877 2 1 1 0 -1 0
920 3 79.99482399538094 1168.9166354628308 31.181028259949677 1 1 1 0 -1 0
915 4 78.80592555037938 0.08855189411863185 33.12984088222798 1 1 1 0 0 0
916 3 78.97069903903136 0.42007766096242954 32.7400780101319 1 1 1 0 0 0
917 2 79.29857064457046 0.5920089171647145 32.35031513691644 1 1 1 0 0 0
918 4 79.66497585435432 0.5390259389140589 31.96055389302332 1 1 1 0 0 0
1083 1 79.13460704171972 1168.461176967161 31.96055419136688 2 1 1 0 -1 0
1084 3 79.50097151815851 1168.4079135316379 32.350315329691036 2 1 1 0 -1 0
1085 2 79.8289742515805 1168.579593552606 32.7400778495477 2 1 1 0 -1 0
1086 1 79.99400187860006 1168.9109930150144 33.12984084047052 2 1 1 0 -1 0
1088 2 79.67008398219393 0.5364869260701817 33.90936709139359 2 1 1 0 0 0
1089 2 79.30419586932557 0.5929448713011762 34.299128958029755 2 1 1 0 0 0
1090 4 78.97471091268581 0.42413377957360004 34.688892643645595 2 1 1 0 0 0
1091 4 78.80679750226909 0.09418721688089426 35.0786551992813 2 1 1 0 0 0
1087 1 79.93335528493434 0.2762074391301429 33.51960354558911 2 1 1 0 0 0
911 1 79.82561644285906 1168.5761920361035 34.6888923590661 1 1 1 0 -1 0
912 3 79.49625479151499 1168.4071286750113 34.29912974242659 1 1 1 0 -1 0
913 3 79.1303292579859 1168.4633068083178 33.909366374515564 1 1 1 0 -1 0
914 4 78.86685204491982 1168.7233838352665 33.5196037622358 1 1 1 0 -1 0
910 1 79.99327758339751 1168.906267083608 35.078655126550586 1 1 1 0 -1 0
905 3 78.80756362385993 0.09890643828926213 37.02746962518637 1 1 1 0 0 0
906 1 78.97809682089066 0.42750586923481954 36.63770687504128 1 1 1 0 0 0
907 1 79.30891900342782 0.5936889880865759 36.247943745613384 1 1 1 0 0 0
908 4 79.67434103257692 0.5343193243396328 35.85818087177867 1 1 1 0 0 0
909 4 79.9355431574874 0.27195327513960194 35.468418310086584 1 1 1 0 0 0
1092 1 78.86425151583344 1168.7284571729763 35.468418129592656 2 1 1 0 -1 0
1093 1 79.12524516151086 1168.4658909919533 35.85818085326393 2 1 1 0 -1 0
1094 4 79.49062204922875 1168.4062414537684 36.247944078942055 2 1 1 0 -1 0
1095 4 79.82157075994539 1168.5721709017475 36.637706660994624 2 1 1 0 -1 0
1096 2 79.99235590412476 1168.9006398719478 37.02746969382013 2 1 1 0 -1 0
1098 1 79.67940044269595 0.5316910929974219 37.80699532293206 2 1 1 0 0 0
1099 4 79.31455971440658 0.594526771723675 38.196758321071066 2 1 1 0 0 0
1100 2 78.98217586067285 0.43149156586046405 38.586521211199816 2 1 1 0 0 0
1101 4 78.80852753136786 0.1045256865764038 38.976283992344634 2 1 1 0 0 0
1097 3 79.93809444217796 0.2668572363593814 37.4172324998236 2 1 1 0 0 0
901 3 79.81815753504914 1168.5688285044803 38.58652112157503 1 1 1 0 -1 0
902 1 79.48589850980308 1168.405538855073 38.196758167000155 1 1 1 0 -1 0
903 4 79.12100253245129 1168.4680950093748 37.80699546977162 1 1 1 0 -1 0
904 2 78.8621055522323 1168.7327306260931 37.41723252673977 1 1 1 0 -1 0
900 1 79.99154785236058 1168.8959274506394 38.976284032886305 1 1 1 0 -1 0
896 4 78.98562487795861 0.43480423864975876 40.535335371440574 1 1 1 0 0 0
897 2 79.3192974332232 0.5951878744102116 40.145572821481394 1 1 1 0 0 0
898 1 79.68362971690263 0.5294501614603966 39.755809908216285 1 1 1 0 0 0
899 3 79.9402059501924 0.26256521557583373 39.3660468383364 1 1 1 0 0 0
1102 2 78.85959625742318 1168.7378486842035 39.366046868336745 2 1 1 0 -1 0
1103 4 79.11596772278021 1168.4707672836757 39.75580981392543 2 1 1 0 -1 0
1104 3 79.48024951244228 1168.4047503116217 40.14557265308682 2 1 1 0 -1 0
1105 1 79.81404511407149 1168.5648785928959 40.53533547591596 2 1 1 0 -1 0
895 1 78.80937744483094 0.10923064972715589 40.925098515787205 1 1 1 0 0 0
1108 4 79.68863995998635 0.5267336777244209 41.70462398947257 2 1 1 0 0 0
1109 3 79.32494726538047 0.5959273833391427 42.0943870653904 2 1 1 0 0 0
1110 1 78.98977013069705 0.43871781990916614 42.48415010106519 2 1 1 0 0 0
1107 2 79.94267325780768 0.2574256844021892 41.31486142890257 2 1 1 0 0 0
891 4 79.8105684230237 1168.5615960168682 42.48414960441838 1 1 1 0 -1 0
892 2 79.47550468776558 1168.4041305200578 42.09438716078947 1 1 1 0 -1 0
893 1 79.11175964773113 1168.4730450088514 41.70462451337443 1 1 1 0 -1 0
894 3 78.8575266801927 1168.7421592156475 41.31486093490136 1 1 1 0 -1 0
1106 4 79.9905342457408 1168.8903168743157 40.925098460716875 2 1 1 0 -1 0
886 3 78.99327465125893 0.4419696770614313 44.43296435702088 1 1 1 0 0 0
887 4 79.32969196061258 0.5965059385955178 44.04320124836351 1 1 1 0 0 0
888 3 79.6928271440887 0.5244193829269274 43.65343867990109 1 1 1 0 0 0
1111 4 78.81044091363395 0.11483244321243676 42.8739126909256 2 1 1 0 0 0
889 3 79.94470782144832 0.2530974978090375 43.263675806027805 1 1 1 0 0 0
1112 2 78.85510139400307 1168.747319972937 43.263675668068 2 1 1 0 -1 0
1113 2 79.10677413549742 1168.475804957633 43.65343860102772 2 1 1 0 -1 0
1114 1 79.46984651761144 1168.403440430358 44.043201262316956 2 1 1 0 -1 0
1115 2 79.80638246686856 1168.5577190022318 44.43296461822349 2 1 1 0 -1 0
890 1 79.98964247559357 1168.8856194390578 42.8739128871238 1 1 1 0 -1 0
885 4 78.81137446491876 0.11952183481872647 44.82272722515331 1 1 1 0 0 0
1118 3 79.69778740385817 0.5216161951982493 45.60225300774889 2 1 1 0 0 0
1119 4 79.33535786383032 0.5971462621208747 45.99201564572857 2 1 1 0 0 0
1120 2 78.99748686521379 0.4458106856706915 46.38177872269325 2 1 1 0 0 0
1117 2 79.94708408757216 0.24791539804735083 45.21249012976005 2 1 1 0 0 0
881 3 79.80284995258779 1168.5544979707774 46.38177883035733 1 1 1 0 -1 0
882 1 79.46509503811241 1168.4029032966548 45.99201571523317 1 1 1 0 -1 0
883 2 79.10260793259015 1168.478155727872 45.60225324347579 1 1 1 0 -1 0
884 3 78.85310873704478 1168.751665841983 45.21248987720504 1 1 1 0 -1 0
1116 1 79.98852912242552 1168.880027214175 44.82272712394259 2 1 1 0 -1 0
877 3 79.34011654142768 0.5976421028933311 47.94083009853604 1 1 1 0 0 0
878 2 79.70193320896642 0.5192290590307034 47.55106731710545 1 1 1 0 0 0
1121 4 78.81253731875178 0.1251038969152513 46.771541674095616 2 1 1 0 0 0
879 4 79.94904189172229 0.24355257536026376 47.161304633833545 1 1 1 0 0 0
1122 1 78.85077470315608 1168.7568680822035 47.161304587864414 2 1 1 0 -1 0
1123 3 79.09767226437661 1168.481002439906 47.55106729633 2 1 1 0 -1 0
1124 2 79.45942851134484 1168.40231235427 47.940829987827456 2 1 1 0 -1 0
880 1 79.98755370939816 1168.8753457812168 46.771541409024465 1 1 1 0 -1 0
875 3 78.81355490997319 0.1297766627944116 48.72035590927289 1 1 1 0 0 0
876 2 79.00105441070401 0.44900040718961526 48.330593347804665 1 1 1 0 0 0
1128 1 79.7068507791567 0.5163400129617861 49.49988214196186 2 1 1 0 0 0
1129 2 79.34579133212058 0.5981833786774502 49.889644215498585 2 1 1 0 0 0
1127 4 79.95132698154494 0.23832947521791453 49.1101187345856 2 1 1 0 0 0
872 3 79.45466343753486 1168.4018584608991 49.889645099194176 1 1 1 0 -1 0
873 4 79.09354734243792 1168.4834253955191 49.49988165763577 1 1 1 0 -1 0
874 1 78.84885870752898 1168.7612482531506 49.11011870163211 1 1 1 0 -1 0
1125 3 79.79860470303214 1168.5506938604512 48.33059328866979 2 1 1 0 -1 0
1126 2 79.98634860797706 1168.8697742298339 48.720355952311614 2 1 1 0 -1 0
867 1 79.3505563264985 0.5985961112766115 51.83845907448693 1 1 1 0 0 0
868 3 79.71094778039576 0.5138805198657975 51.448695878847275 1 1 1 0 0 0
1130 3 79.00533286799335 0.45276738861971705 50.27940777346967 2 1 1 0 0 0
1131 1 78.81480974465318 0.1353376051576128 50.6691703082608 2 1 1 0 0 0
869 4 79.95320791864566 0.23393344079154588 51.05893346003341 1 1 1 0 0 0
871 2 79.79501618825985 1168.547534495301 50.27940711518011 1 1 1 0 -1 0
1132 1 78.84661583150071 1168.7664908447837 51.05893307051031 2 1 1 0 -1 0
1133 2 79.08865475796895 1168.486357362491 51.448696470088 2 1 1 0 -1 0
1134 4 79.44898798113196 1168.4013663818876 51.83845892087611 2 1 1 0 -1 0
870 4 79.9852893305554 1168.8651108159372 50.66917042442758 1 1 1 0 -1 0
865 3 78.81591094877895 0.13999165976927144 52.61798479417821 1 1 1 0 0 0
866 1 79.0089489853102 0.45589483889330185 52.2282219795947 1 1 1 0 0 0
1138 1 79.71581528939167 0.5109059258690761 53.39751070474005 2 1 1 0 0 0
1139 4 79.35623957426705 0.5990383688065841 53.78727310577559 2 1 1 0 0 0
1137 3 79.95540162124588 0.22867133567822054 53.00774761478324 2 1 1 0 0 0
862 1 79.44421568140356 1168.40099553831 53.78727386044351 1 1 1 0 -1 0
863 4 79.08457898290584 1168.4888523465531 53.39751052003796 1 1 1 0 -1 0
864 2 78.8447765453313 1168.7709034355544 53.00774744147108 1 1 1 0 -1 0
1135 4 79.7907043857168 1168.5438055181005 52.2282216798591 2 1 1 0 -1 0
1136 2 79.98398487954232 1168.8595610500547 52.61798489050022 2 1 1 0 -1 0
857 2 79.36101168353005 0.5993678516982978 55.736087903128194 1 1 1 0 0 0
858 1 79.71987030113759 0.5083754603508274 55.346324771779635 1 1 1 0 0 0
1140 2 79.01329381457542 0.4595864468081396 54.17703647266423 2 1 1 0 0 0
1141 4 78.81726517267747 0.14552983051257642 54.56679919325881 2 1 1 0 0 0
859 3 79.95720613882474 0.22424292086756803 54.95656213479096 1 1 1 0 0 0
861 3 79.78706055307583 1168.5407094708717 54.17703592145135 1 1 1 0 -1 0
1142 2 78.84262522270504 1168.7761841240838 54.95656199258614 2 1 1 0 -1 0
1143 4 79.07974377149968 1168.4918695768886 55.3463250273031 2 1 1 0 -1 0
1144 3 79.4385319564698 1168.4006025069168 55.73608768900752 2 1 1 0 -1 0
860 1 79.98284922152462 1168.8549166125101 54.5667992139397 1 1 1 0 -1 0
855 1 78.81844268548937 0.15016416415930423 56.51561358108764 1 1 1 0 0 0
856 4 79.01696582882745 0.46265032304931125 56.12585067815462 1 1 1 0 0 0
1148 4 79.7246806534192 0.5053160935566019 57.295139122277725 2 1 1 0 0 0
1147 2 79.95930824813537 0.2189434770869596 56.90537644709381 2 1 1 0 0 0
853 1 79.07570975476138 1168.494435183886 57.29513928788624 1 1 1 0 -1 0
854 3 78.8408626561642 1168.7806282310119 56.90537639819611 1 1 1 0 -1 0
1145 1 79.78268264637425 1168.5370563207903 56.12585059781226 2 1 1 0 -1 0
1146 4 79.98144530370092 1168.8493904585341 56.51561364368807 2 1 1 0 -1 0
848 3 79.72869356394091 0.5027154899420853 59.243953667917246 1 1 1 0 0 0
1149 3 79.36670213178107 0.5997111049735039 57.684902628530935 2 1 1 0 0 0
1150 1 79.02136987501667 0.46626549607865087 58.07466477883445 2 1 1 0 0 0
1151 4 78.81988868766432 0.15567790014202218 58.464427948871304 2 1 1 0 0 0
849 3 79.96103617834463 0.21448429075473813 58.8541909995807 1 1 1 0 0 0
851 4 79.77898325254944 1168.5340249904102 58.07466532007183 1 1 1 0 -1 0
852 2 79.43375949076633 1168.400314535969 57.68490202123869 1 1 1 0 -1 0
1152 2 78.83880257440696 1168.7859456459523 58.85419086576782 2 1 1 0 -1 0
1153 2 79.07092422773914 1168.4975365809294 59.24395344164533 2 1 1 0 -1 0
850 1 79.98022579255563 1168.844766329192 58.464427815264266 1 1 1 0 -1 0
845 4 78.82115007215974 0.16029104200788408 60.413242274528095 1 1 1 0 0 0
846 3 79.02509703490489 0.46926458440201435 60.02347961355016 1 1 1 0 0 0
847 4 79.37147517555367 0.5999571742051951 59.633716394595105 1 1 1 0 0 0
1158 3 79.73345374246155 0.4995728147353144 61.19276805302336 2 1 1 0 0 0
1157 2 79.9630468783452 0.20914884565100422 60.80300523150915 2 1 1 0 0 0
843 2 79.06693235211783 1168.5001718860267 61.19276823534469 1 1 1 0 -1 0
844 3 78.83711657309146 1168.790419902475 60.80300524441925 1 1 1 0 -1 0
1154 1 79.42806172429003 1168.4000210698969 59.63371717288341 2 1 1 0 -1 0
1155 2 79.77454568785173 1168.530448109627 60.02347903020553 2 1 1 0 -1 0
1156 1 79.97873011929278 1168.8392657486065 60.413242405833316 2 1 1 0 -1 0
838 2 79.73741753604496 0.4969026452945061 63.14158265036036 1 1 1 0 0 0
1159 4 79.37717349091531 0.6002008123376386 61.582531254636926 2 1 1 0 0 0
1160 2 79.02956734463969 0.47280245849894587 61.972293580260306 2 1 1 0 0 0
1161 4 78.82269547361497 0.16577847109375904 62.36205675786325 2 1 1 0 0 0
839 4 79.96469098742367 0.20465992283432224 62.75181946283894 1 1 1 0 0 0
841 3 79.77079078960098 1168.527481753411 61.972294107875385 1 1 1 0 -1 0
842 1 79.42328845481734 1168.3998166649972 61.582530622736506 1 1 1 0 -1 0
1162 1 78.83515564617906 1168.7957724594633 62.75181967530919 2 1 1 0 -1 0
1163 3 79.0622048473211 1168.5033560469935 63.14158252506634 2 1 1 0 -1 0
840 1 79.97742668159358 1168.8346637646628 62.36205672208373 1 1 1 0 -1 0
835 3 78.82403317593945 0.17036884632203725 64.31086732503094 1 1 1 0 0 0
836 2 79.03334327398123 0.47573634843888263 63.921108154319626 1 1 1 0 0 0
837 3 79.38195333423181 0.6003633827324235 63.5313454187344 1 1 1 0 0 0
1167 4 79.96660979251148 0.19929032984958656 64.70063006488346 2 1 1 0 0 0
834 1 78.83354616397936 1168.8002754941194 64.70063023672269 1 1 1 0 -1 0
1164 2 79.41758981911633 1168.399622947607 63.531345372922495 2 1 1 0 -1 0
1165 3 79.76629486732809 1168.5239827563014 63.921107860527464 2 1 1 0 -1 0
1166 2 79.97583196691124 1168.8291903510976 64.31086767477242 2 1 1 0 -1 0
1168 1 79.74211985189305 0.4936773812068347 65.09039318038424 2 1 1 0 0 0
1169 2 79.38765284664244 0.6005077032142915 65.4801557808924 2 1 1 0 0 0
1170 3 79.03787866540549 0.47919520278338734 65.86991904118182 2 1 1 0 0 0
1171 1 78.8256781152891 0.17582868771170967 66.25968158374448 2 1 1 0 0 0
829 4 79.96817715895918 0.19477373185935803 66.64944466979165 1 1 1 0 0 0
831 2 79.76249118613234 1168.5210824464843 65.86991900339869 1 1 1 0 -1 0
832 3 79.41281046113767 1168.3995018129278 65.4801559518363 1 1 1 0 -1 0
833 4 79.05826114880796 1168.506060882266 65.09039290932947 1 1 1 0 -1 0
1172 1 78.83167669900985 1168.8056617292596 66.64944450055144 2 1 1 0 -1 0
830 4 79.97445953889296 1168.8246113105822 66.25968163241305 1 1 1 0 -1 0
825 3 78.82709197641704 0.18039517840223657 68.20849592148008 1 1 1 0 0 0
826 1 79.04170352441443 0.48206251915032033 67.81873350389515 1 1 1 0 0 0
827 1 79.39243197534891 0.6005871438636504 67.42897024914738 1 1 1 0 0 0
828 3 79.74603535551812 0.4909380645271424 67.03920726288028 1 1 1 0 0 0
1177 3 79.96999699690528 0.18937148979352958 68.59825898664982 2 1 1 0 0 0
824 2 78.83014359038314 1168.8101919410647 68.59825897313421 1 1 1 0 -1 0
1173 2 79.0535846812081 1168.5093267067125 67.03920778468576 2 1 1 0 -1 0
1174 4 79.40711081370358 1168.3994075929131 67.42897009658125 2 1 1 0 -1 0
1175 4 79.75792976704047 1168.517662717883 67.81873308702434 2 1 1 0 -1 0
1176 2 79.97276528180859 1168.8191664255362 68.20849624837369 2 1 1 0 -1 0
1178 1 79.75067931736338 0.487631169571305 68.98802175751258 2 1 1 0 0 0
1179 4 79.39813159730674 0.6006318207068386 69.3777845209056 2 1 1 0 0 0
1180 2 79.04629735061611 0.4854422071336381 69.76754794876751 2 1 1 0 0 0
1181 4 78.82883614731438 0.18582506215711525 70.15731048724939 2 1 1 0 0 0
819 3 79.9714882042633 0.18482787852939808 70.54707329386552 1 1 1 0 0 0
821 3 79.754076895966 1168.5148287640482 69.76754755298988 1 1 1 0 -1 0
822 1 79.40232416012465 1168.3993698692516 69.37778468860922 1 1 1 0 -1 0
823 4 79.04969002011745 1168.5121002047363 68.98802199497354 1 1 1 0 -1 0
1182 2 78.82836597368171 1168.8156097631434 70.5470734408546 2 1 1 0 -1 0
820 1 79.97130914525812 1168.8146124678585 70.1573104880215 1 1 1 0 -1 0
815 1 78.83033404935875 0.1903660075275215 72.10612488568734 1 1 1 0 0 0
816 4 79.05017150626355 0.48824274700534515 71.71636184900346 1 1 1 0 0 0
817 2 79.40291784209255 0.6006275347991278 71.3265993318585 1 1 1 0 0 0
818 1 79.75455325265192 0.48482425678533936 70.9368362265944 1 1 1 0 0 0
1183 4 79.04507824665347 1168.5154479654402 70.93683586273775 2 1 1 0 -1 0
1184 3 79.39662527430129 1168.3993745540288 71.32659944971905 2 1 1 0 -1 0
1185 1 79.74945738844254 1168.511489534512 71.71636184519153 2 1 1 0 -1 0
1186 4 79.96952309231368 1168.8091977769693 72.10612497360678 2 1 1 0 -1 0
1188 4 79.75913912272551 0.48143688809831897 72.88565072712676 2 1 1 0 0 0
1189 3 79.40861777112886 0.6005728522002445 73.27541331949988 2 1 1 0 0 0
1190 1 79.05482303415424 0.49154115026008377 73.6651768017799 2 1 1 0 0 0
1191 4 78.83216250518991 0.19576531195969818 74.05493897591644 2 1 1 0 0 0
1187 2 79.97321621935352 0.17939457200565828 72.495887631727 2 1 1 0 0 0
811 4 79.74555588787874 1168.5087231497516 73.66517635213914 1 1 1 0 -1 0
812 2 79.3918457892578 1168.3994206820496 73.27541362612573 1 1 1 0 -1 0
813 1 79.04123232797485 1168.5182884529897 72.88565029964039 1 1 1 0 -1 0
814 3 78.82691703061877 1168.8201660082384 72.4958879727812 1 1 1 0 -1 0
810 1 79.96798304556597 1168.8046700502248 74.05493930573405 1 1 1 0 -1 0
805 4 78.83373661027395 0.20027932262723488 76.00375351538797 1 1 1 0 0 0
806 3 79.05874566021512 0.4942732807417281 75.6139910704597 1 1 1 0 0 0
807 4 79.41339689364376 0.6004854431374609 75.22422779663262 1 1 1 0 0 0
808 3 79.76295711980511 0.47856239394853967 74.83446479332368 1 1 1 0 0 0
809 3 79.97463073887867 0.1748261135957347 74.44470234801157 1 1 1 0 0 0
1192 2 78.82523829683556 1168.825614332884 74.44470212943807 2 1 1 0 -1 0
1193 2 79.03667243829378 1168.5217152711693 74.83446535425682 2 1 1 0 -1 0
1194 1 79.38614601383368 1168.3995253657504 75.22422765846456 2 1 1 0 -1 0
1195 2 79.74087824113573 1168.5054650147601 75.6139906342015 2 1 1 0 -1 0
1196 1 79.96610548230888 1168.7992873992548 76.0037538711629 2 1 1 0 -1 0
1198 3 79.76748466938939 0.475095382288116 76.78327922061521 2 1 1 0 0 0
1199 4 79.41909563716378 0.6003311551405415 77.17304256491668 2 1 1 0 0 0
1200 2 79.06344882120702 0.4974907391368893 77.5628050009573 2 1 1 0 0 0
1201 4 78.8356638983299 0.20564529600334536 77.95256808637419 2 1 1 0 0 0
1197 2 79.97625966503414 0.16936340687005472 76.39351655397131 2 1 1 0 0 0
801 3 79.73692828069079 1168.5027676595337 77.56280560796789 1 1 1 0 -1 0
802 1 79.38136605181893 1168.399654244945 77.17304165785814 1 1 1 0 -1 0
803 2 79.03287546159586 1168.5246230051016 76.7832797590605 1 1 1 0 -1 0