LAMMPS data file via write_data, version 4 Feb 2025, timestep = 100000, units = lj

2000 atoms
4 atom types
1980 bonds
1 bond types
2000 ellipsoids

-500 500 xlo xhi
-500 500 ylo yhi
-500 500 zlo zhi

Masses

1 3.1575
2 3.1575
3 3.1575
4 3.1575

Atoms # hybrid

600 2 -176.07085360420274 -454.7042248552405 -476.51719292956557 6 1 1 0 0 0
599 2 -175.88340683814675 -454.2497694657885 -476.28718031700913 6 1 1 0 0 0
402 3 -176.75869256837893 -454.5656337647891 -475.54496764712195 5 1 1 0 0 0
403 4 -176.33826329246764 -454.77080385090187 -475.2994103153311 5 1 1 0 0 0
404 2 -175.81521511819864 -454.8707982892639 -475.21415143085306 5 1 1 0 0 0
405 3 -175.28449941984078 -454.74116143836403 -475.1996355134463 5 1 1 0 0 0
401 3 -177.04127836503113 -454.3856111424007 -475.94704562162127 5 1 1 0 0 0
406 4 -174.8614395465144 -454.4090800419296 -475.13522366055366 5 1 1 0 0 0
407 4 -174.59611917573898 -453.98510202936217 -474.95607142415264 5 1 1 0 0 0
408 4 -174.4771700423829 -453.5830635962233 -474.6361758906345 5 1 1 0 0 0
595 1 -175.66728717803343 -453.91610529284895 -474.3911913796532 6 1 1 0 0 0
596 2 -175.82066845448847 -453.71422730347246 -474.87191006239283 6 1 1 0 0 0
597 3 -175.86646243568256 -453.68437847311725 -475.409353182954 6 1 1 0 0 0
598 1 -175.86503170351253 -453.8660373181165 -475.91710970348174 6 1 1 0 0 0
409 4 -174.4542279251071 -453.3020144901172 -474.18740133213066 5 1 1 0 0 0
410 4 -174.4495593830605 -453.20995117390055 -473.6626465001108 5 1 1 0 0 0
411 4 -174.37489320852575 -453.31407898790513 -473.145412930693 5 1 1 0 0 0
412 1 -174.1638055868672 -453.5498043909391 -472.7185645301663 5 1 1 0 0 0
592 1 -174.33885465549045 -454.423369054662 -473.7728383439174 6 1 1 0 0 0
593 1 -174.87873751610172 -454.39533385777065 -473.84588069922745 6 1 1 0 0 0
594 1 -175.34835379599699 -454.1900529955945 -474.03921686581003 6 1 1 0 0 0
413 3 -173.79826102608737 -453.80493362900864 -472.4323554716431 5 1 1 0 0 0
587 2 -173.12147597516505 -452.81891374084773 -472.61713699718644 6 1 1 0 0 0
588 2 -173.12420793446924 -453.0549161464459 -473.09089145838556 6 1 1 0 0 0
589 4 -173.20946510662372 -453.44192176182025 -473.44442653401785 6 1 1 0 0 0
590 1 -173.44009195997197 -453.8766740621974 -473.651996391346 6 1 1 0 0 0
591 1 -173.83050189806 -454.2370631648704 -473.7384724785207 6 1 1 0 0 0
414 3 -173.314425078851 -453.9615271140963 -472.2878099659371 5 1 1 0 0 0
415 4 -172.78928548596227 -453.93644073178984 -472.23767565604555 5 1 1 0 0 0
416 1 -172.31411836359524 -453.709246280382 -472.2027364519948 5 1 1 0 0 0
583 1 -172.35834525792865 -453.4292112107462 -470.95943719490504 6 1 1 0 0 0
584 4 -172.75886437863267 -453.1888136710143 -471.20486961895267 6 1 1 0 0 0
585 4 -173.0089469487507 -452.9352838295225 -471.59437382019905 6 1 1 0 0 0
586 1 -173.11181979969584 -452.78499984454686 -472.08992597574814 6 1 1 0 0 0
417 1 -171.96312000745087 -453.32913513476797 -472.09880579795066 5 1 1 0 0 0
582 2 -171.85600814215258 -453.54466416507483 -470.84657796614516 6 1 1 0 0 0
418 4 -171.7678053482678 -452.8979824665128 -471.865596535609 5 1 1 0 0 0
579 3 -170.57535788628664 -452.78785132751284 -470.63115696063875 6 1 1 0 0 0
580 2 -170.88693003854428 -453.192343961443 -470.7641969643043 6 1 1 0 0 0
581 2 -171.3355533638132 -453.4663976990191 -470.80918828868636 6 1 1 0 0 0
419 3 -171.70612168593934 -452.53524016002217 -471.4874209080484 5 1 1 0 0 0
420 3 -171.71003001394482 -452.3367962414646 -470.9985448393131 5 1 1 0 0 0
421 3 -171.68892131564584 -452.34196237921685 -470.4713638774609 5 1 1 0 0 0
578 4 -170.41886719668258 -452.36318265740044 -470.3599414376226 6 1 1 0 0 0
423 1 -171.28054779906992 -452.78042901027834 -469.62816077089786 5 1 1 0 0 0
424 2 -170.85539175797228 -453.0047145244114 -469.4106088047982 5 1 1 0 0 0
425 3 -170.34248137884464 -453.08655051573174 -469.3177848541249 5 1 1 0 0 0
426 2 -169.82917562386004 -452.96874050565776 -469.28571518048074 5 1 1 0 0 0
427 1 -169.40296960699206 -452.6628329195447 -469.22950631455524 5 1 1 0 0 0
422 2 -171.56080737815083 -452.5199407084485 -469.9914664790964 5 1 1 0 0 0
574 4 -170.18137655928845 -452.1540830910085 -468.46312048009645 6 1 1 0 0 0
575 3 -170.34646384820851 -451.94430726926413 -468.91823667277527 6 1 1 0 0 0
576 2 -170.3884341626384 -451.88874587466694 -469.4412489923431 6 1 1 0 0 0
577 3 -170.38208917915603 -452.03554814629473 -469.94800269188903 6 1 1 0 0 0
428 1 -169.12136705005554 -452.24514456234186 -469.07257673949067 5 1 1 0 0 0
429 1 -168.99207979787292 -451.83048215148983 -468.77302649936865 5 1 1 0 0 0
571 3 -168.88381215160084 -452.64614947461826 -467.88570514947986 6 1 1 0 0 0
572 4 -169.40577042607293 -452.613038758331 -467.955373614042 6 1 1 0 0 0
430 2 -168.97037236759215 -451.53261046819483 -468.33806477402067 5 1 1 0 0 0
431 4 -168.97446589317912 -451.42507928273403 -467.82152751310156 5 1 1 0 0 0
432 1 -168.91369736402925 -451.5158976726265 -467.3053398915776 5 1 1 0 0 0
433 2 -168.7197379761467 -451.74477622545453 -466.87130669169403 5 1 1 0 0 0
434 4 -168.37012105816655 -452.00388672953636 -466.57294414037284 5 1 1 0 0 0
569 4 -167.9928041347919 -452.1314606929641 -467.77981733900003 6 1 1 0 0 0
570 1 -168.38536363117294 -452.47573629176725 -467.85572391689044 6 1 1 0 0 0
573 4 -169.8607639784979 -452.41682284493527 -468.1366762271872 6 1 1 0 0 0
435 3 -167.89597810869617 -452.1749910864096 -466.4170524561384 5 1 1 0 0 0
566 2 -167.65046693371195 -451.05511041310507 -466.7881084631073 6 1 1 0 0 0
567 1 -167.65675221712326 -451.3084742281343 -467.25088025042885 6 1 1 0 0 0
568 3 -167.75205174807905 -451.7028508913796 -467.58818649344386 6 1 1 0 0 0
436 2 -167.3713191648665 -452.1701547006819 -466.36137430312414 5 1 1 0 0 0
437 4 -166.8875486349808 -451.96202534530397 -466.3291454258229 5 1 1 0 0 0
438 1 -166.52199165882402 -451.5932514615981 -466.235527187335 5 1 1 0 0 0
439 2 -166.31126843798307 -451.16179685360356 -466.0168193911213 5 1 1 0 0 0
440 1 -166.23868465765807 -450.78720842582584 -465.6523944203881 5 1 1 0 0 0
561 4 -166.43933425690864 -451.76304846624083 -464.9744807285304 6 1 1 0 0 0
562 3 -166.93486083501756 -451.6310433683424 -465.09865205858875 6 1 1 0 0 0
563 4 -167.3217060075591 -451.38389182318446 -465.35876238306025 6 1 1 0 0 0
564 1 -167.55591932451264 -451.1357140538305 -465.76118302324693 6 1 1 0 0 0
565 3 -167.64610666342665 -451.0009836471477 -466.2632830293282 6 1 1 0 0 0
560 4 -165.91649941938613 -451.70543572321276 -464.93306866261173 6 1 1 0 0 0
557 3 -164.9589051844631 -450.6249487468939 -464.51501082695034 6 1 1 0 0 0
558 1 -165.13015598998612 -451.0530912528107 -464.7714432954912 6 1 1 0 0 0
559 3 -165.45713262904266 -451.4490256030452 -464.8927393074194 6 1 1 0 0 0
442 2 -166.22545471379462 -450.5544912821447 -464.64458503565777 5 1 1 0 0 0
441 1 -166.23997990582887 -450.5694521271365 -465.17180002652987 5 1 1 0 0 0
1400 2 -347.2248119812804 -306.4681402739569 -466.3198641396171 14 1 1 0 0 0
1201 3 -348.3404504884472 -306.16487274140377 -466.14185741999387 13 1 1 0 0 0
1202 3 -348.1688450102832 -306.1612644244579 -465.64742025054505 13 1 1 0 0 0
1203 4 -347.81911941654147 -306.2049888965014 -465.25380352947616 13 1 1 0 0 0
1204 2 -347.3350080486476 -306.1813491784722 -465.01731948162336 13 1 1 0 0 0
1205 3 -346.84320765192615 -305.96303561570267 -464.92167882314556 13 1 1 0 0 0
1206 4 -346.485693995647 -305.5587417588693 -464.87545047716054 13 1 1 0 0 0
1207 4 -346.3191988085301 -305.0608675632396 -464.7939126571477 13 1 1 0 0 0
1208 4 -346.33047705609965 -304.56604528954017 -464.6118668689719 13 1 1 0 0 0
1395 1 -347.50822737513494 -305.01043448515236 -464.5595657436191 14 1 1 0 0 0
1396 2 -347.53602238599757 -304.9950870674039 -465.1021179389299 14 1 1 0 0 0
1397 3 -347.43026699122163 -305.13934719232867 -465.61186097424536 14 1 1 0 0 0
1398 1 -347.2696961674785 -305.4642906889649 -466.01116962886266 14 1 1 0 0 0
1399 2 -347.1497086413986 -305.93977331681305 -466.2210732494329 14 1 1 0 0 0
443 4 -166.1108571273284 -450.7184598587162 -464.15635132751555 5 1 1 0 0 0
444 2 -165.8463935136175 -450.9758803527659 -463.7792782033643 5 1 1 0 0 0
445 1 -165.43387419886142 -451.20909659363554 -463.5472686030619 5 1 1 0 0 0
446 1 -164.92609011151433 -451.3087867564567 -463.44427517234806 5 1 1 0 0 0
447 1 -164.40863507413897 -451.2116065763335 -463.40982591153283 5 1 1 0 0 0
448 3 -163.97043294555525 -450.92200092839056 -463.3598467371045 5 1 1 0 0 0
553 2 -164.73551136304837 -450.3506438768294 -462.6247976540574 6 1 1 0 0 0
554 4 -164.88598313480705 -450.15238050340645 -463.0900291398273 6 1 1 0 0 0
555 4 -164.91924385721046 -450.1159840165735 -463.61534759065523 6 1 1 0 0 0
556 4 -164.91309420558306 -450.2830045206563 -464.11580416988454 6 1 1 0 0 0
449 4 -163.67311811860083 -450.5106733064499 -463.2156110418426 5 1 1 0 0 0
450 2 -163.52981270701451 -450.09024021070115 -462.9308479373142 5 1 1 0 0 0
451 2 -163.50060815641524 -449.7764534649758 -462.50767489100224 5 1 1 0 0 0
1391 1 -345.91072274817066 -304.7912005116837 -463.4181843367666 14 1 1 0 0 0
1392 1 -346.3706938406344 -305.064727007877 -463.50719710685416 14 1 1 0 0 0
1393 1 -346.86818603515616 -305.1549284317765 -463.7120382175339 14 1 1 0 0 0
1394 1 -347.27968504810207 -305.10371951520824 -464.0699554778625 14 1 1 0 0 0
1390 1 -345.59306514885606 -304.35935904478225 -463.36934853235414 14 1 1 0 0 0
1209 4 -346.45958194275795 -304.16183755961833 -464.2942797400494 13 1 1 0 0 0
1210 4 -346.6114680618258 -303.91450518004274 -463.8474885314848 13 1 1 0 0 0
1211 4 -346.67756702229406 -303.84091728127294 -463.32388185354387 13 1 1 0 0 0
1212 1 -346.5765062891224 -303.8943478364651 -462.8049831055444 13 1 1 0 0 0
1387 2 -345.67199574764385 -302.9974602712205 -462.713369340584 14 1 1 0 0 0
1388 2 -345.52037120419226 -303.36360990192026 -463.0642145120083 14 1 1 0 0 0
1389 4 -345.46867538717464 -303.84876487845105 -463.2739318758364 14 1 1 0 0 0
551 3 -163.98642286380291 -450.8213885528884 -462.08881451385054 6 1 1 0 0 0
549 1 -162.962346634141 -450.7235018138037 -461.98065667323795 6 1 1 0 0 0
550 3 -163.46723578594518 -450.8737413709209 -462.0107477774763 6 1 1 0 0 0
552 1 -164.43038760854293 -450.6134877703626 -462.28391198882434 6 1 1 0 0 0
452 4 -163.50630711386617 -449.6483429356684 -461.99586861040746 5 1 1 0 0 0
453 2 -163.45569376413164 -449.72100386676954 -461.4757252334342 5 1 1 0 0 0
454 3 -163.27694253034207 -449.9403990751272 -461.03041164319023 5 1 1 0 0 0
455 2 -162.94235005757878 -450.2019657863904 -460.7173282877978 5 1 1 0 0 0
456 3 -162.47787441808703 -450.3866201466004 -460.54834425819524 5 1 1 0 0 0
545 2 -162.1802101058071 -449.2938048262361 -460.95973416150656 6 1 1 0 0 0
546 3 -162.19176826720053 -449.5649196083702 -461.4122312758609 6 1 1 0 0 0
547 2 -162.29979722221773 -449.9680435290409 -461.73504903274363 6 1 1 0 0 0
548 3 -162.5563524063689 -450.39338490079547 -461.91296645642393 6 1 1 0 0 0
457 4 -161.9541968661112 -450.40176183440246 -460.4857103573231 5 1 1 0 0 0
1213 3 -346.28643911290453 -303.9819856445163 -462.37046034770185 13 1 1 0 0 0
1214 3 -345.8517180908795 -304.00004835356685 -462.0701213422646 13 1 1 0 0 0
1215 4 -345.3663750111171 -303.8696910378849 -461.90775314094 13 1 1 0 0 0
1216 1 -344.94176799557886 -303.56350026282263 -461.8400925724284 13 1 1 0 0 0
1217 1 -344.66838703060523 -303.11473539210795 -461.79152459229005 13 1 1 0 0 0
1218 4 -344.5846776242147 -302.60583311412313 -461.6799978859677 13 1 1 0 0 0
1382 2 -344.90190692657484 -302.9151917538594 -460.55392568634784 14 1 1 0 0 0
1383 1 -345.3597466744353 -302.92918356295314 -460.8158343777259 14 1 1 0 0 0
1384 4 -345.693501756054 -302.8489740418298 -461.2166056293715 14 1 1 0 0 0
1385 4 -345.8439043305267 -302.77426514909115 -461.7169353627784 14 1 1 0 0 0
1386 1 -345.8148358073397 -302.80294019712983 -462.24331241494303 14 1 1 0 0 0
1219 3 -344.66378871767864 -302.1399714439273 -461.4452256569386 13 1 1 0 0 0
1220 3 -344.82282103403315 -301.80551673812795 -461.06940143399055 13 1 1 0 0 0
1221 3 -344.9513674827046 -301.645591096518 -460.5833030567546 13 1 1 0 0 0
544 1 -162.17984913444332 -449.2190356438499 -460.43743166892256 6 1 1 0 0 0
543 4 -162.10155617701534 -449.3373400692819 -459.9292341380108 6 1 1 0 0 0
458 1 -161.46238388343116 -450.213159494047 -460.455057429711 5 1 1 0 0 0
459 2 -161.08252989926888 -449.8567377529271 -460.3710041855011 5 1 1 0 0 0
460 2 -160.85617806022728 -449.4262071532016 -460.1665568760353 5 1 1 0 0 0
461 3 -160.7720155151394 -449.0407964319717 -459.8161775149659 5 1 1 0 0 0
462 4 -160.76976881361796 -448.80419802102125 -459.34457747366486 5 1 1 0 0 0
463 2 -160.76095810045027 -448.76886322361656 -458.81820851740474 5 1 1 0 0 0
539 1 -160.4981019555598 -449.942427233871 -459.05696245836384 6 1 1 0 0 0
540 2 -161.02238772273094 -449.97948124111565 -459.10324301128145 6 1 1 0 0 0
541 3 -161.51028086413427 -449.83169139561744 -459.2392904251954 6 1 1 0 0 0
542 3 -161.8830366849209 -449.57896431534266 -459.51419509167596 6 1 1 0 0 0
538 3 -160.0286994735259 -449.70427076728595 -459.0204485983091 6 1 1 0 0 0
536 1 -159.50023501082987 -448.88760254030956 -458.66861003440897 6 1 1 0 0 0
537 1 -159.68655800996106 -449.31799963605675 -458.9103382591986 6 1 1 0 0 0
1380 2 -344.02958924540565 -302.3912663238614 -460.36793500605074 14 1 1 0 0 0
1381 2 -344.4219844765263 -302.7397646790904 -460.42240919551824 14 1 1 0 0 0
1222 2 -344.94952364772445 -301.6432227752518 -460.0556839034482 13 1 1 0 0 0
1223 1 -344.7622847378203 -301.7271891024442 -459.56959556663395 13 1 1 0 0 0
1224 2 -344.3984842705425 -301.79654011084284 -459.1937895438902 13 1 1 0 0 0
1375 3 -344.1423487561193 -300.56474173463147 -458.986500279574 14 1 1 0 0 0
1376 2 -344.0392238108753 -300.67985689881056 -459.4909843793565 14 1 1 0 0 0
1225 3 -343.927752000597 -301.7553586348606 -458.9590435356628 13 1 1 0 0 0
1226 2 -343.45653794473105 -301.54578767336903 -458.8475635544945 13 1 1 0 0 0
1227 1 -343.0914580160341 -301.1679524598869 -458.7991109614191 13 1 1 0 0 0
1228 1 -342.90258254643635 -300.6799173243964 -458.73174465786644 13 1 1 0 0 0
1377 3 -343.8772249493458 -300.9710087429791 -459.9001022722268 14 1 1 0 0 0
1378 4 -343.7677729760268 -301.40998099405584 -460.1716057786396 14 1 1 0 0 0
1379 3 -343.8041950811145 -301.91765785071243 -460.3106320881163 14 1 1 0 0 0
1229 1 -342.8993086936326 -300.17769217051494 -458.57003618065943 13 1 1 0 0 0
464 4 -160.6593637323983 -448.9179414508536 -458.3223812075133 5 1 1 0 0 0
465 4 -160.41071462727973 -449.1710824512312 -457.9318895800233 5 1 1 0 0 0
466 3 -160.0113756393104 -449.4121036290094 -457.68525702085384 5 1 1 0 0 0
467 4 -159.50959926315025 -449.52899565465214 -457.5714713567383 5 1 1 0 0 0
468 3 -158.98891066250556 -449.452491078149 -457.53377672018166 5 1 1 0 0 0
469 4 -158.53934712178508 -449.179915462646 -457.4892165206747 5 1 1 0 0 0
470 1 -158.22645515355921 -448.77610828387185 -457.3571982140286 5 1 1 0 0 0
532 1 -159.28805358452826 -448.5478697033619 -456.78775532390654 6 1 1 0 0 0
533 2 -159.4242954018096 -448.36212061932434 -457.2624403770719 6 1 1 0 0 0
534 1 -159.44964771645135 -448.3453169196796 -457.7891901758458 6 1 1 0 0 0
535 2 -159.44463433696276 -448.5322622472151 -458.28256302190647 6 1 1 0 0 0
471 3 -158.06872060994394 -448.35109649821993 -457.087244050277 5 1 1 0 0 0
472 3 -158.031203376328 -448.02220852782983 -456.67637227601926 5 1 1 0 0 0
1374 4 -344.0954512860765 -300.59326414186245 -458.46173599269764 14 1 1 0 0 0
1373 4 -343.85904071476 -300.683565729313 -457.99876070115573 14 1 1 0 0 0
1370 1 -342.5240146971433 -300.3956378797044 -457.3710551448046 14 1 1 0 0 0
1371 3 -342.9771246873067 -300.6512210718973 -457.45914046371814 14 1 1 0 0 0
1372 4 -343.4588821490217 -300.732515439945 -457.6583675416349 14 1 1 0 0 0
1230 2 -343.02712468059804 -299.7621730068993 -458.27104227954817 13 1 1 0 0 0
1231 4 -343.1863800500631 -299.5044000273971 -457.8390917348656 13 1 1 0 0 0
1232 1 -343.26659869852267 -299.42109606146187 -457.32429481142304 13 1 1 0 0 0
1233 2 -343.1845195477259 -299.4689083364457 -456.80528859366785 13 1 1 0 0 0
1366 2 -342.24558598100424 -298.61148330146955 -456.70975060736953 14 1 1 0 0 0
1367 1 -342.0989775595201 -298.9911482856828 -457.04553465285386 14 1 1 0 0 0
1368 3 -342.0608361651024 -299.4799952215628 -457.2403791087816 14 1 1 0 0 0
1369 4 -342.1999342494985 -299.9817346747609 -457.32581738308085 14 1 1 0 0 0
530 2 -158.5663006731887 -449.0281365376161 -456.2234605788827 6 1 1 0 0 0
531 4 -158.99858147499722 -448.80958689982265 -456.4326490559061 6 1 1 0 0 0
529 2 -158.05080665813844 -449.0992470009849 -456.13628445136396 6 1 1 0 0 0
527 3 -157.12143957836773 -448.6543285006862 -456.0449804694122 6 1 1 0 0 0
528 3 -157.54034804207734 -448.969414985356 -456.105202239239 6 1 1 0 0 0
478 4 -156.53740260918326 -448.63127080816247 -454.61037567323285 5 1 1 0 0 0
477 3 -157.0591610433791 -448.5965035838761 -454.68073121409003 5 1 1 0 0 0
473 2 -158.03756843853432 -447.87367410320087 -456.17012385317145 5 1 1 0 0 0
474 2 -157.99637061848574 -447.9276211085902 -455.646881160209 5 1 1 0 0 0
475 1 -157.8325422516577 -448.13645620048163 -455.19087827884556 5 1 1 0 0 0
476 4 -157.51324152952063 -448.39925281030963 -454.86319634008373 5 1 1 0 0 0
523 1 -156.71278899667786 -447.43907589255014 -454.61172547327124 6 1 1 0 0 0
524 2 -156.71006856516757 -447.53452117759264 -455.1306409826756 6 1 1 0 0 0
525 1 -156.72777775383952 -447.8227243973789 -455.57224687150546 6 1 1 0 0 0
526 4 -156.84907219568743 -448.2334649574282 -455.88041940639584 6 1 1 0 0 0
479 1 -156.03837179786495 -448.4625653280731 -454.5804192785117 5 1 1 0 0 0
1234 4 -342.91276615942434 -299.5593363084226 -456.36215956898235 13 1 1 0 0 0
1235 3 -342.4892733720744 -299.5892054028125 -456.0488671321876 13 1 1 0 0 0
1362 3 -341.99066354567424 -298.50962115313666 -454.8064134184123 14 1 1 0 0 0
1236 2 -342.0042250486303 -299.4761935216885 -455.87466353480767 13 1 1 0 0 0
1237 4 -341.5690007120726 -299.1871773357869 -455.8009080208409 13 1 1 0 0 0
1238 1 -341.27782379586125 -298.74963777081587 -455.754372150402 13 1 1 0 0 0
1365 3 -342.39454009946405 -298.39969465213284 -456.2500238479846 14 1 1 0 0 0
1363 4 -342.30778088645104 -298.4251902292658 -455.2195701271278 14 1 1 0 0 0
1364 1 -342.43891088175025 -298.35667120175736 -455.72602893285296 14 1 1 0 0 0
1239 2 -341.1753173182747 -298.2421973921584 -455.6524548366125 13 1 1 0 0 0
1240 1 -341.24113866289076 -297.76754798749283 -455.4316247029521 13 1 1 0 0 0
1241 1 -341.39698423176895 -297.41709029936214 -455.0692960921905 13 1 1 0 0 0
1242 2 -341.53355203149226 -297.2394616477622 -454.59160607459575 13 1 1 0 0 0
521 3 -156.44277810126007 -447.77415102098587 -453.6710702924702 6 1 1 0 0 0
522 4 -156.6457487125336 -447.5402360239052 -454.09824436086495 6 1 1 0 0 0
520 3 -156.0845123615749 -448.03125784066486 -453.3813570278323 6 1 1 0 0 0
480 2 -155.6446481222575 -448.11946044012865 -454.5052405403133 5 1 1 0 0 0
481 2 -155.40254980288833 -447.69108084120626 -454.3147887581959 5 1 1 0 0 0
482 1 -155.30618389063275 -447.29591386587833 -453.97870323849634 5 1 1 0 0 0
483 1 -155.29947211596203 -447.04101066240594 -453.51676333222804 5 1 1 0 0 0
484 2 -155.29544978251576 -446.9851258805487 -452.99206882117966 5 1 1 0 0 0
516 1 -154.24446012409314 -447.5823821202909 -453.04768408228733 6 1 1 0 0 0
517 3 -154.60153368248427 -447.957953569536 -453.14733582737483 6 1 1 0 0 0
518 4 -155.0802511093795 -448.1773334500612 -453.18093780179777 6 1 1 0 0 0
519 4 -155.6050587810394 -448.1940062269035 -453.2329242103222 6 1 1 0 0 0
515 1 -154.0426380285816 -447.15093053047514 -452.8202214956564 6 1 1 0 0 0
1361 4 -341.54111404615924 -298.50885438596356 -454.53019771601373 14 1 1 0 0 0
1243 4 -341.5481780587992 -297.2237884503244 -454.06441456774957 13 1 1 0 0 0
1244 2 -341.3801870008358 -297.30343036571304 -453.5706265317996 13 1 1 0 0 0
1245 1 -341.03178480447724 -297.3789268246571 -453.18164497831793 13 1 1 0 0 0
1246 1 -340.5672990939402 -297.35224467922563 -452.9327844902615 13 1 1 0 0 0
1247 1 -340.0910289867686 -297.1605343424665 -452.8111112126569 13 1 1 0 0 0
1356 4 -340.4526725663901 -296.5949542759493 -453.8902401224919 14 1 1 0 0 0
1357 3 -340.35422761084067 -297.0450060715946 -454.1474412629563 14 1 1 0 0 0
1358 1 -340.4086355462333 -297.55399107620633 -454.2753650540843 14 1 1 0 0 0
1359 3 -340.6528009493066 -298.018685634977 -454.32858795971885 14 1 1 0 0 0
1360 4 -341.0582884611431 -298.3511167966243 -454.387408493557 14 1 1 0 0 0
1248 3 -339.7113313681606 -296.7977710341031 -452.7598964177395 13 1 1 0 0 0
1354 4 -340.7281712880554 -296.15452547107685 -452.9957374793825 14 1 1 0 0 0
1355 4 -340.6144333985538 -296.2867666402922 -453.49369974737874 14 1 1 0 0 0
1249 4 -339.503309938269 -296.31682931675164 -452.69815013112964 13 1 1 0 0 0
485 4 -155.20618434248698 -447.1184850821023 -452.48929730272135 5 1 1 0 0 0
486 4 -154.97300292042598 -447.36614217882436 -452.0855245630329 5 1 1 0 0 0
487 4 -154.58659159776047 -447.61375865874606 -451.8236711234815 5 1 1 0 0 0
488 3 -154.09000852898467 -447.7467866159081 -451.6977477063931 5 1 1 0 0 0
489 3 -153.5638207498803 -447.68926650480836 -451.6547705103463 5 1 1 0 0 0
490 4 -153.09912860621586 -447.4294195500688 -451.6120583859745 5 1 1 0 0 0
491 1 -152.76732490661144 -447.025236921313 -451.48430453565527 5 1 1 0 0 0
510 4 -153.55007309491296 -447.00484927883093 -450.57280554581496 6 1 1 0 0 0
511 1 -153.8309488725671 -446.7466312882814 -450.9448008031505 6 1 1 0 0 0
514 1 -153.97609504387086 -446.78315772014685 -452.4470867226918 6 1 1 0 0 0
492 1 -152.5947604464751 -446.5880131439407 -451.21343501196196 5 1 1 0 0 0
493 4 -152.5507626280331 -446.2454981213662 -450.791129065525 5 1 1 0 0 0
512 2 -153.95773769281453 -446.5738981852898 -451.4310228479792 6 1 1 0 0 0
513 2 -153.97807522432 -446.57672498458794 -451.96036940103187 6 1 1 0 0 0
1353 2 -340.6990833444536 -296.17172873549436 -452.4691936598249 14 1 1 0 0 0
1351 3 -340.0948268871834 -296.31801104082024 -451.64246052432924 14 1 1 0 0 0
1352 1 -340.48154645855647 -296.26041561070565 -451.9967502281445 14 1 1 0 0 0
1250 2 -339.48295445947076 -295.8112765897662 -452.5485087284045 13 1 1 0 0 0
1251 2 -339.6016349386007 -295.38315465828896 -452.2638738564217 13 1 1 0 0 0
1252 4 -339.76284658388244 -295.1078432769017 -451.8436299946011 13 1 1 0 0 0
1253 2 -339.8554396797105 -295.0081043420323 -451.33385639959675 13 1 1 0 0 0
1254 3 -339.79189220567184 -295.04624419858715 -450.811460453427 13 1 1 0 0 0
1346 3 -338.6793127358922 -294.622236580763 -451.02769806968405 14 1 1 0 0 0
1347 2 -338.65668259749765 -295.11706396024584 -451.20942367615737 14 1 1 0 0 0
1348 3 -338.8150369527211 -295.6143088929776 -451.2872814293823 14 1 1 0 0 0
1349 1 -339.15548809847763 -296.0147902293278 -451.33308722905855 14 1 1 0 0 0
1350 3 -339.6164462270837 -296.25264580961255 -451.42969355020193 14 1 1 0 0 0
1345 2 -338.81949596798285 -294.2281754585889 -450.7060539369582 14 1 1 0 0 0
508 1 -152.6104175340914 -447.31326263301224 -450.2416510012298 6 1 1 0 0 0
509 4 -153.12317763477205 -447.22829513079176 -450.3454351419165 6 1 1 0 0 0
507 2 -152.095466318024 -447.20713685337665 -450.20066912257164 6 1 1 0 0 0
497 1 -151.9697594986284 -446.65253054847335 -448.9411927828356 5 1 1 0 0 0
498 1 -151.4895049679303 -446.830811134386 -448.7726986122479 5 1 1 0 0 0
499 1 -150.95613353376405 -446.83191009795 -448.76535210147136 5 1 1 0 0 0
506 2 -151.65717697341628 -446.9124099489597 -450.1433430350001 6 1 1 0 0 0
494 3 -152.55508347812847 -446.09662934683143 -450.2639877426808 5 1 1 0 0 0
495 3 -152.50457836620063 -446.1699939588467 -449.7229528345814 5 1 1 0 0 0
496 4 -152.31776056844876 -446.39685739696677 -449.26578428647343 5 1 1 0 0 0
500 1 -150.46286502939114 -446.60598007752037 -448.7507369893194 5 1 1 0 0 0
502 4 -151.21206181382868 -445.67074585210196 -448.71082392626147 6 1 1 0 0 0
503 4 -151.24232351799955 -445.75712857973696 -449.23118552851537 6 1 1 0 0 0
504 4 -151.24190513970157 -446.04829465125965 -449.6851343157608 6 1 1 0 0 0
505 1 -151.3602285847326 -446.4860917146731 -449.99010787375556 6 1 1 0 0 0
1255 2 -339.5384466383064 -295.1370928445645 -450.357695841981 13 1 1 0 0 0
1256 3 -339.12673381206014 -295.17733085303837 -450.0301841535487 13 1 1 0 0 0
1257 4 -338.64288134949976 -295.0810657570906 -449.84307381050996 13 1 1 0 0 0
1258 1 -338.19785699812115 -294.80940774100185 -449.7621682874205 13 1 1 0 0 0
1262 4 -337.97094994931604 -293.03044622911807 -449.06800481200173 13 1 1 0 0 0
1341 3 -338.6202324077596 -294.0891942557903 -448.7984292204594 14 1 1 0 0 0
1342 3 -338.92018137223914 -294.0016082240002 -449.22357597210123 14 1 1 0 0 0
1343 4 -339.03218788367786 -293.9403432339082 -449.73552479480975 14 1 1 0 0 0
1344 1 -338.97332337445124 -293.99853205575573 -450.2566193018369 14 1 1 0 0 0
1259 2 -337.889258669068 -294.38386072355524 -449.7167011351679 13 1 1 0 0 0
1260 2 -337.7677081642541 -293.8789178290355 -449.62370327093396 13 1 1 0 0 0
1261 3 -337.8194203721314 -293.39641087659567 -449.41657204902396 13 1 1 0 0 0
501 4 -151.05984120706324 -445.7533530543496 -448.21692665796934 6 1 1 0 0 0
1263 2 -338.1144810448159 -292.83500077894473 -448.5994001221765 13 1 1 0 0 0
1264 4 -338.1449519563153 -292.8053358720816 -448.0734895104377 13 1 1 0 0 0
1340 2 -338.1799845224098 -294.10090533112174 -448.50785202786267 14 1 1 0 0 0
1265 4 -337.99623143962185 -292.87962898756666 -447.5727368812948 13 1 1 0 0 0
1266 3 -337.6638899403134 -292.96026132946037 -447.17094339209484 13 1 1 0 0 0
1267 4 -337.20672483956344 -292.9474312910279 -446.90783521004926 13 1 1 0 0 0
1268 3 -336.72651452052685 -292.7735195348162 -446.7753844447314 13 1 1 0 0 0
1336 1 -336.9422563482122 -292.6806381181333 -448.12194554867506 14 1 1 0 0 0
1337 1 -337.01503028767456 -293.1898684520185 -448.2393290035724 14 1 1 0 0 0
1338 3 -337.2776745688549 -293.64474360266445 -448.2892993304939 14 1 1 0 0 0
1339 1 -337.69539092800693 -293.96067177424806 -448.3532750163924 14 1 1 0 0 0
1269 4 -336.3329726170756 -292.42637262523016 -446.7205734231408 13 1 1 0 0 0
1270 1 -336.10596988644295 -291.95348786885336 -446.6636504737746 13 1 1 0 0 0
1333 2 -337.3125230219982 -291.7458481662021 -447.00468035420784 14 1 1 0 0 0
1334 1 -337.1891484563168 -291.895488259877 -447.4953706981131 14 1 1 0 0 0
1335 2 -337.0287722121763 -292.22036073103357 -447.87894310651535 14 1 1 0 0 0
1271 3 -336.068031996993 -291.4456583799238 -446.5255911334973 13 1 1 0 0 0
1272 3 -336.1765831762077 -291.00570992996825 -446.25530895196994 13 1 1 0 0 0
1273 2 -336.33860649395643 -290.7130945451586 -445.84724629008923 13 1 1 0 0 0
1274 2 -336.4426727480124 -290.59653247733127 -445.34328800350033 13 1 1 0 0 0
1275 1 -336.3973093193339 -290.6241228463665 -444.8183390649646 13 1 1 0 0 0
1329 2 -336.25594718145777 -291.85229426729074 -445.40144284177126 14 1 1 0 0 0
1330 2 -336.72982771311837 -291.9022404111148 -445.628010887145 14 1 1 0 0 0
1331 4 -337.1023099844076 -291.8369453171886 -445.9959564850239 14 1 1 0 0 0
1332 1 -337.30077478413165 -291.75092945733417 -446.47720844587775 14 1 1 0 0 0
1326 4 -335.2543927807943 -290.7541575919417 -445.1773986246292 14 1 1 0 0 0
1327 3 -335.4320148613639 -291.2458866530729 -445.24841540852884 14 1 1 0 0 0
1328 3 -335.7882024626568 -291.6322678827648 -445.2956424492913 14 1 1 0 0 0
1324 2 -335.39354645075474 -289.8465607521735 -444.701041265159 14 1 1 0 0 0
1325 1 -335.26085845471925 -290.25436254588976 -445.0084206155821 14 1 1 0 0 0
1276 4 -336.1624972975067 -290.7143281946424 -444.3545322389692 13 1 1 0 0 0
1277 3 -335.76345134594465 -290.76405059555043 -444.012946979989 13 1 1 0 0 0
1278 4 -335.28193742968904 -290.6841317512107 -443.81257768981055 13 1 1 0 0 0
1279 1 -334.8281180013883 -290.4300531707319 -443.7237932504174 13 1 1 0 0 0
1280 2 -334.5026192835907 -290.01726526539727 -443.6785398586631 13 1 1 0 0 0
1281 2 -334.3618821187147 -289.5158669076294 -443.59377373591195 13 1 1 0 0 0
1282 1 -334.398727037776 -289.02646725398324 -443.4000542610605 13 1 1 0 0 0
1283 1 -334.54482439855985 -288.6455411088503 -443.06545001543617 13 1 1 0 0 0
1320 3 -335.2483543170665 -289.66798409877487 -442.79182890030194 14 1 1 0 0 0
1321 3 -335.53064571675014 -289.57829680727014 -443.2284749675773 14 1 1 0 0 0
1322 4 -335.6237050715438 -289.5252452748444 -443.7451145624575 14 1 1 0 0 0
1323 1 -335.55112868588503 -289.59913504161455 -444.26247671345635 14 1 1 0 0 0
1287 4 -334.29380698039256 -288.54006185686393 -441.1605446343138 13 1 1 0 0 0
1318 4 -334.33317096732424 -289.5683949718707 -442.32005771142656 14 1 1 0 0 0
1319 4 -334.8183929535901 -289.6913845433835 -442.48690149986516 14 1 1 0 0 0
1317 3 -333.90412520720923 -289.26930885496836 -442.250098938716 14 1 1 0 0 0
1316 1 -333.62334139218876 -288.8250417371366 -442.2024220352873 14 1 1 0 0 0
1284 2 -334.6942147564854 -288.43220574170795 -442.6065228316548 13 1 1 0 0 0
1285 4 -334.73977357565525 -288.3878542838883 -442.0826053406499 13 1 1 0 0 0
1286 4 -334.61005646957074 -288.4556526908136 -441.57534122120614 13 1 1 0 0 0
1288 3 -333.84365637954477 -288.539533016565 -440.882134782759 13 1 1 0 0 0
1289 3 -333.3580625671149 -288.3808193376916 -440.7370906553239 13 1 1 0 0 0
1312 2 -333.8931312958478 -287.3370591248889 -441.00828456421715 14 1 1 0 0 0
1313 2 -333.76255142710585 -287.5049940278738 -441.49344035924366 14 1 1 0 0 0
1314 1 -333.6052882159807 -287.8466034410291 -441.86503615832936 14 1 1 0 0 0
1315 1 -333.5318150153642 -288.316481011182 -442.0946687463608 14 1 1 0 0 0
1290 4 -332.94845592295377 -288.04351451872225 -440.6760053870638 13 1 1 0 0 0
1291 1 -332.70221210999415 -287.56828414608293 -440.61857354722787 13 1 1 0 0 0
1292 1 -332.65141100252424 -287.0461580612381 -440.4803092269068 13 1 1 0 0 0
1306 2 -332.03072031287104 -286.85938593190576 -439.17292552857185 14 1 1 0 0 0
1307 2 -332.4079843474918 -287.2292032056858 -439.22909322649167 14 1 1 0 0 0
1308 1 -332.87924872438293 -287.43084684375395 -439.3530556430201 14 1 1 0 0 0