LAMMPS (4 Feb 2025 - Development - patch_4Feb2025-313-gd544b4249b-modified)
KOKKOS mode with Kokkos version 4.5.1 is enabled (src/KOKKOS/kokkos.cpp:72)
  will use up to 1 GPU(s) per node
  using 2 OpenMP thread(s) per MPI task
package kokkos
package kokkos neigh half newton on comm no
###
# Box and units  (use LJ units and periodic boundaries)
###
variable T      equal 0.1
variable rhos   equal 0.2

units           lj
atom_style      hybrid bond ellipsoid oxdna
WARNING: Atom style hybrid defines both, per-type and per-atom masses; both must be set, but only per-atom masses will be used (src/atom_vec_hybrid.cpp:132)
dimension	3
boundary	p p p
newton          on # THIS IS NOT In EllipLJtest

read_data data.1000ncl_alt
Reading data file ...
  orthogonal box = (0 0 0) to (1169 1169 1169)
  1 by 1 by 1 MPI processor grid
  reading atoms ...
  2000 atoms
  reading velocities ...
  2000 velocities
  2000 ellipsoids
  scanning bonds ...
  1 = max bonds/atom
  orthogonal box = (0 0 0) to (1169 1169 1169)
  1 by 1 by 1 MPI processor grid
  reading bonds ...
  1998 bonds
Finding 1-2 1-3 1-4 neighbors ...
  special bond factors lj:    0        0        0       
  special bond factors coul:  0        0        0       
     2 = max # of 1-2 neighbors
     2 = max # of 1-3 neighbors
     4 = max # of 1-4 neighbors
     6 = max # of special neighbors
  special bonds CPU = 0.002 seconds
  read_data CPU = 0.040 seconds

neighbor        3.0 bin
#neigh_modify    delay 0 every 100 check yes

###################################################################
# oxDNA bond interactions - FENE backbone
#bond_style hybrid oxdna2/fene
#bond_coeff * oxdna2/fene 2.0 0.25 0.7564
bond_style oxdna2/fene
bond_coeff * 2.0 0.25 0.7564
special_bonds lj 0 1 1
Finding 1-2 1-3 1-4 neighbors ...
  special bond factors lj:    0        1        1       
  special bond factors coul:  0        0        0       
     2 = max # of 1-2 neighbors
     2 = max # of 1-3 neighbors
     4 = max # of 1-4 neighbors
     6 = max # of special neighbors
  special bonds CPU = 0.001 seconds

# oxDNA pair interactions
pair_style hybrid/overlay oxdna2/excv oxdna2/stk oxdna2/hbond oxdna2/xstk oxdna2/coaxstk oxdna2/dh
#pair_style oxdna2/excv
#pair_coeff * * 2.0 0.7 0.675 2.0 0.515 0.5 2.0 0.33 0.32
pair_coeff * * oxdna2/excv    2.0 0.7 0.675 2.0 0.515 0.5 2.0 0.33 0.32
pair_coeff * * oxdna2/stk    seqav ${T} 1.3523 2.6717 6.0 0.4 0.9 0.32 0.75 1.3 0 0.8 0.9 0 0.95 0.9 0 0.95 2.0 0.65 2.0 0.65
pair_coeff * * oxdna2/stk    seqav 0.1 1.3523 2.6717 6.0 0.4 0.9 0.32 0.75 1.3 0 0.8 0.9 0 0.95 0.9 0 0.95 2.0 0.65 2.0 0.65
pair_coeff * * oxdna2/hbond   seqav 0.0 8.0 0.4 0.75 0.34 0.7 1.5 0 0.7 1.5 0 0.7 1.5 0 0.7 0.46 3.141592653589793 0.7 4.0 1.5707963267948966 0.45 4.0 1.5707963267948966 0.45
pair_coeff 1 4 oxdna2/hbond   seqav 1.0678 8.0 0.4 0.75 0.34 0.7 1.5 0 0.7 1.5 0 0.7 1.5 0 0.7 0.46 3.141592653589793 0.7 4.0 1.5707963267948966 0.45 4.0 1.5707963267948966 0.45
pair_coeff 2 3 oxdna2/hbond   seqav 1.0678 8.0 0.4 0.75 0.34 0.7 1.5 0 0.7 1.5 0 0.7 1.5 0 0.7 0.46 3.141592653589793 0.7 4.0 1.5707963267948966 0.45 4.0 1.5707963267948966 0.45
pair_coeff * * oxdna2/xstk    47.5 0.575 0.675 0.495 0.655 2.25 0.791592653589793 0.58 1.7 1.0 0.68 1.7 1.0 0.68 1.5 0 0.65 1.7 0.875 0.68 1.7 0.875 0.68
pair_coeff * * oxdna2/coaxstk 58.5 0.4 0.6 0.22 0.58 2.0 2.891592653589793 0.65 1.3 0 0.8 0.9 0 0.95 0.9 0 0.95 40.0 3.116592653589793
pair_coeff * * oxdna2/dh      ${T} ${rhos} 0.815
pair_coeff * * oxdna2/dh      0.1 ${rhos} 0.815
pair_coeff * * oxdna2/dh      0.1 0.2 0.815

###################################################
#reset_atoms 	id sort yes    # THIS IS ON with EllipLJtest

comm_modify cutoff 6           # THIS IS ON with EllipLJtest

###
# Set up fixes
###

fix 1 all   nve/asphere   ###NVE ensemble
#fix 2 all   langevin   1.0 1.0   2.0   424242   ###Langevin integrator Tstart Tstop 1/friction rndseed

compute ekin all ke
compute epot all pe
variable ekin equal c_ekin
variable epot equal c_epot
variable etot equal c_ekin+c_epot

fix 3 all print 5000 "$(step)  ekin = ${ekin} | epot = ${epot} | etot = ${etot}" screen yes

compute q all property/atom quatw quati quatj quatk
compute diameter all property/atom shapex shapey shapez
dump 1 all custom 5000 dump.polymer id type x y z c_q[1] c_q[2] c_q[3] c_q[4] c_diameter[1] c_diameter[2] c_diameter[3]
dump_modify 1 colname c_q[1] quatw colname c_q[2] quati colname c_q[3] quatj colname c_q[4] quatk

###################################################

timestep 0.00001

run 5000
Generated 0 of 6 mixed pair_coeff terms from geometric mixing rule
Neighbor list info ...
  update: every = 1 steps, delay = 0 steps, check = yes
  max neighbors/atom: 2000, page size: 100000
  master list distance cutoff = 6.6389877
  ghost atom cutoff = 6.6389877
  binsize = 6.6389877, bins = 177 177 177
  6 neighbor lists, perpetual/occasional/extra = 6 0 0
  (1) pair oxdna2/excv, perpetual
      attributes: half, newton on, kokkos_device
      pair build: half/bin/newton/kk/device
      stencil: half/bin/3d
      bin: kk/device
  (2) pair oxdna2/stk, perpetual, copy from (1)
      attributes: half, newton on, kokkos_device
      pair build: copy/kk/device
      stencil: none
      bin: none
  (3) pair oxdna2/hbond, perpetual, copy from (1)
      attributes: half, newton on, kokkos_device
      pair build: copy/kk/device
      stencil: none
      bin: none
  (4) pair oxdna2/xstk, perpetual, copy from (1)
      attributes: half, newton on, kokkos_device
      pair build: copy/kk/device
      stencil: none
      bin: none
  (5) pair oxdna2/coaxstk, perpetual, copy from (1)
      attributes: half, newton on, kokkos_device
      pair build: copy/kk/device
      stencil: none
      bin: none
  (6) pair oxdna2/dh, perpetual, copy from (1)
      attributes: half, newton on, kokkos_device
      pair build: copy/kk/device
      stencil: none
      bin: none
WARNING: Communication cutoff adjusted to 6.638987723814633 (src/comm.cpp:751)
WARNING: FENE bond too long: 0 (src/KOKKOS/bond_oxdna_fene_kokkos.cpp:157)
0  ekin = 0 | epot = 29196946.4846017 | etot = 29196946.4846017
Per MPI rank memory allocation (min/avg/max) = 11.79 | 11.79 | 11.79 Mbytes
   Step          Temp          E_pair         E_mol          TotEng         Press     
         0   0              9995.8753      4602.598       14598.473      0.21426911   
WARNING: FENE bond too long: 1 (src/KOKKOS/bond_oxdna_fene_kokkos.cpp:157)
WARNING: FENE bond too long: 2 (src/KOKKOS/bond_oxdna_fene_kokkos.cpp:157)
WARNING: FENE bond too long: 3 (src/KOKKOS/bond_oxdna_fene_kokkos.cpp:157)
WARNING: FENE bond too long: 4 (src/KOKKOS/bond_oxdna_fene_kokkos.cpp:157)
WARNING: FENE bond too long: 5 (src/KOKKOS/bond_oxdna_fene_kokkos.cpp:157)
WARNING: FENE bond too long: 6 (src/KOKKOS/bond_oxdna_fene_kokkos.cpp:157)
WARNING: FENE bond too long: 7 (src/KOKKOS/bond_oxdna_fene_kokkos.cpp:157)
WARNING: FENE bond too long: 8 (src/KOKKOS/bond_oxdna_fene_kokkos.cpp:157)
WARNING: FENE bond too long: 9 (src/KOKKOS/bond_oxdna_fene_kokkos.cpp:157)
WARNING: FENE bond too long: 10 (src/KOKKOS/bond_oxdna_fene_kokkos.cpp:157)
WARNING: FENE bond too long: 11 (src/KOKKOS/bond_oxdna_fene_kokkos.cpp:157)
WARNING: FENE bond too long: 12 (src/KOKKOS/bond_oxdna_fene_kokkos.cpp:157)
WARNING: FENE bond too long: 13 (src/KOKKOS/bond_oxdna_fene_kokkos.cpp:157)
WARNING: FENE bond too long: 14 (src/KOKKOS/bond_oxdna_fene_kokkos.cpp:157)
WARNING: FENE bond too long: 15 (src/KOKKOS/bond_oxdna_fene_kokkos.cpp:157)
WARNING: FENE bond too long: 16 (src/KOKKOS/bond_oxdna_fene_kokkos.cpp:157)
WARNING: FENE bond too long: 17 (src/KOKKOS/bond_oxdna_fene_kokkos.cpp:157)
WARNING: FENE bond too long: 18 (src/KOKKOS/bond_oxdna_fene_kokkos.cpp:157)
WARNING: FENE bond too long: 19 (src/KOKKOS/bond_oxdna_fene_kokkos.cpp:157)
WARNING: FENE bond too long: 20 (src/KOKKOS/bond_oxdna_fene_kokkos.cpp:157)
WARNING: FENE bond too long: 21 (src/KOKKOS/bond_oxdna_fene_kokkos.cpp:157)
WARNING: FENE bond too long: 22 (src/KOKKOS/bond_oxdna_fene_kokkos.cpp:157)
WARNING: FENE bond too long: 23 (src/KOKKOS/bond_oxdna_fene_kokkos.cpp:157)
WARNING: FENE bond too long: 24 (src/KOKKOS/bond_oxdna_fene_kokkos.cpp:157)
WARNING: FENE bond too long: 25 (src/KOKKOS/bond_oxdna_fene_kokkos.cpp:157)
WARNING: FENE bond too long: 26 (src/KOKKOS/bond_oxdna_fene_kokkos.cpp:157)
WARNING: FENE bond too long: 27 (src/KOKKOS/bond_oxdna_fene_kokkos.cpp:157)
WARNING: FENE bond too long: 28 (src/KOKKOS/bond_oxdna_fene_kokkos.cpp:157)
WARNING: FENE bond too long: 29 (src/KOKKOS/bond_oxdna_fene_kokkos.cpp:157)
WARNING: FENE bond too long: 30 (src/KOKKOS/bond_oxdna_fene_kokkos.cpp:157)
WARNING: FENE bond too long: 31 (src/KOKKOS/bond_oxdna_fene_kokkos.cpp:157)
WARNING: FENE bond too long: 32 (src/KOKKOS/bond_oxdna_fene_kokkos.cpp:157)
WARNING: FENE bond too long: 33 (src/KOKKOS/bond_oxdna_fene_kokkos.cpp:157)
WARNING: FENE bond too long: 34 (src/KOKKOS/bond_oxdna_fene_kokkos.cpp:157)
WARNING: FENE bond too long: 35 (src/KOKKOS/bond_oxdna_fene_kokkos.cpp:157)
WARNING: FENE bond too long: 36 (src/KOKKOS/bond_oxdna_fene_kokkos.cpp:157)
WARNING: FENE bond too long: 37 (src/KOKKOS/bond_oxdna_fene_kokkos.cpp:157)
WARNING: FENE bond too long: 38 (src/KOKKOS/bond_oxdna_fene_kokkos.cpp:157)
WARNING: FENE bond too long: 39 (src/KOKKOS/bond_oxdna_fene_kokkos.cpp:157)
WARNING: FENE bond too long: 40 (src/KOKKOS/bond_oxdna_fene_kokkos.cpp:157)
WARNING: FENE bond too long: 41 (src/KOKKOS/bond_oxdna_fene_kokkos.cpp:157)
WARNING: FENE bond too long: 42 (src/KOKKOS/bond_oxdna_fene_kokkos.cpp:157)
WARNING: FENE bond too long: 43 (src/KOKKOS/bond_oxdna_fene_kokkos.cpp:157)
WARNING: FENE bond too long: 44 (src/KOKKOS/bond_oxdna_fene_kokkos.cpp:157)
WARNING: FENE bond too long: 45 (src/KOKKOS/bond_oxdna_fene_kokkos.cpp:157)
WARNING: FENE bond too long: 46 (src/KOKKOS/bond_oxdna_fene_kokkos.cpp:157)
WARNING: FENE bond too long: 47 (src/KOKKOS/bond_oxdna_fene_kokkos.cpp:157)
WARNING: FENE bond too long: 48 (src/KOKKOS/bond_oxdna_fene_kokkos.cpp:157)
WARNING: FENE bond too long: 49 (src/KOKKOS/bond_oxdna_fene_kokkos.cpp:157)
WARNING: FENE bond too long: 50 (src/KOKKOS/bond_oxdna_fene_kokkos.cpp:157)
WARNING: FENE bond too long: 51 (src/KOKKOS/bond_oxdna_fene_kokkos.cpp:157)
WARNING: FENE bond too long: 52 (src/KOKKOS/bond_oxdna_fene_kokkos.cpp:157)
WARNING: FENE bond too long: 53 (src/KOKKOS/bond_oxdna_fene_kokkos.cpp:157)
WARNING: FENE bond too long: 54 (src/KOKKOS/bond_oxdna_fene_kokkos.cpp:157)
WARNING: FENE bond too long: 55 (src/KOKKOS/bond_oxdna_fene_kokkos.cpp:157)
WARNING: FENE bond too long: 56 (src/KOKKOS/bond_oxdna_fene_kokkos.cpp:157)
WARNING: FENE bond too long: 57 (src/KOKKOS/bond_oxdna_fene_kokkos.cpp:157)
WARNING: FENE bond too long: 58 (src/KOKKOS/bond_oxdna_fene_kokkos.cpp:157)
WARNING: FENE bond too long: 59 (src/KOKKOS/bond_oxdna_fene_kokkos.cpp:157)
WARNING: FENE bond too long: 60 (src/KOKKOS/bond_oxdna_fene_kokkos.cpp:157)
WARNING: FENE bond too long: 61 (src/KOKKOS/bond_oxdna_fene_kokkos.cpp:157)
WARNING: FENE bond too long: 62 (src/KOKKOS/bond_oxdna_fene_kokkos.cpp:157)
WARNING: FENE bond too long: 63 (src/KOKKOS/bond_oxdna_fene_kokkos.cpp:157)
WARNING: FENE bond too long: 64 (src/KOKKOS/bond_oxdna_fene_kokkos.cpp:157)
WARNING: FENE bond too long: 65 (src/KOKKOS/bond_oxdna_fene_kokkos.cpp:157)
WARNING: FENE bond too long: 66 (src/KOKKOS/bond_oxdna_fene_kokkos.cpp:157)
WARNING: FENE bond too long: 67 (src/KOKKOS/bond_oxdna_fene_kokkos.cpp:157)
WARNING: FENE bond too long: 68 (src/KOKKOS/bond_oxdna_fene_kokkos.cpp:157)
WARNING: FENE bond too long: 69 (src/KOKKOS/bond_oxdna_fene_kokkos.cpp:157)
WARNING: FENE bond too long: 70 (src/KOKKOS/bond_oxdna_fene_kokkos.cpp:157)
WARNING: FENE bond too long: 71 (src/KOKKOS/bond_oxdna_fene_kokkos.cpp:157)
WARNING: FENE bond too long: 72 (src/KOKKOS/bond_oxdna_fene_kokkos.cpp:157)
WARNING: FENE bond too long: 73 (src/KOKKOS/bond_oxdna_fene_kokkos.cpp:157)
WARNING: FENE bond too long: 74 (src/KOKKOS/bond_oxdna_fene_kokkos.cpp:157)
WARNING: FENE bond too long: 75 (src/KOKKOS/bond_oxdna_fene_kokkos.cpp:157)
WARNING: FENE bond too long: 76 (src/KOKKOS/bond_oxdna_fene_kokkos.cpp:157)
WARNING: FENE bond too long: 77 (src/KOKKOS/bond_oxdna_fene_kokkos.cpp:157)
WARNING: FENE bond too long: 78 (src/KOKKOS/bond_oxdna_fene_kokkos.cpp:157)
WARNING: FENE bond too long: 79 (src/KOKKOS/bond_oxdna_fene_kokkos.cpp:157)
WARNING: FENE bond too long: 80 (src/KOKKOS/bond_oxdna_fene_kokkos.cpp:157)
WARNING: FENE bond too long: 81 (src/KOKKOS/bond_oxdna_fene_kokkos.cpp:157)
WARNING: FENE bond too long: 82 (src/KOKKOS/bond_oxdna_fene_kokkos.cpp:157)
WARNING: FENE bond too long: 83 (src/KOKKOS/bond_oxdna_fene_kokkos.cpp:157)
WARNING: FENE bond too long: 84 (src/KOKKOS/bond_oxdna_fene_kokkos.cpp:157)
WARNING: FENE bond too long: 85 (src/KOKKOS/bond_oxdna_fene_kokkos.cpp:157)
WARNING: FENE bond too long: 86 (src/KOKKOS/bond_oxdna_fene_kokkos.cpp:157)
WARNING: FENE bond too long: 87 (src/KOKKOS/bond_oxdna_fene_kokkos.cpp:157)
WARNING: FENE bond too long: 88 (src/KOKKOS/bond_oxdna_fene_kokkos.cpp:157)
WARNING: FENE bond too long: 89 (src/KOKKOS/bond_oxdna_fene_kokkos.cpp:157)
WARNING: FENE bond too long: 90 (src/KOKKOS/bond_oxdna_fene_kokkos.cpp:157)
WARNING: FENE bond too long: 91 (src/KOKKOS/bond_oxdna_fene_kokkos.cpp:157)
WARNING: FENE bond too long: 92 (src/KOKKOS/bond_oxdna_fene_kokkos.cpp:157)
WARNING: FENE bond too long: 93 (src/KOKKOS/bond_oxdna_fene_kokkos.cpp:157)
WARNING: FENE bond too long: 94 (src/KOKKOS/bond_oxdna_fene_kokkos.cpp:157)
WARNING: FENE bond too long: 95 (src/KOKKOS/bond_oxdna_fene_kokkos.cpp:157)
WARNING: FENE bond too long: 96 (src/KOKKOS/bond_oxdna_fene_kokkos.cpp:157)
WARNING: FENE bond too long: 97 (src/KOKKOS/bond_oxdna_fene_kokkos.cpp:157)
ERROR on proc 0: Bond atoms missing at step 1028 (src/KOKKOS/neigh_bond_kokkos.cpp:262)
