LAMMPS (4 Feb 2025 - Development - patch_4Feb2025-311-ga630dff073-modified)
OMP_NUM_THREADS environment is not set. Defaulting to 1 thread. (src/comm.cpp:99)
  using 1 OpenMP thread(s) per MPI task
###
# Box and units  (use LJ units and periodic boundaries)
###
variable T      equal 0.1
variable rhos   equal 0.2

units           lj
atom_style      hybrid bond ellipsoid oxdna
WARNING: Atom style hybrid defines both, per-type and per-atom masses; both must be set, but only per-atom masses will be used (src/atom_vec_hybrid.cpp:132)
dimension	3
boundary	p p p
newton          on # THIS IS NOT In EllipLJtest

read_data data.1000ncl
Reading data file ...
  orthogonal box = (-500 -500 -500) to (500 500 500)
  2 by 2 by 2 MPI processor grid
  reading atoms ...
  2000 atoms
  reading velocities ...
  2000 velocities
  2000 ellipsoids
  scanning bonds ...
  1 = max bonds/atom
  orthogonal box = (-500 -500 -500) to (500 500 500)
  2 by 2 by 2 MPI processor grid
  reading bonds ...
  1980 bonds
Finding 1-2 1-3 1-4 neighbors ...
  special bond factors lj:    0        0        0       
  special bond factors coul:  0        0        0       
     2 = max # of 1-2 neighbors
     2 = max # of 1-3 neighbors
     4 = max # of 1-4 neighbors
     6 = max # of special neighbors
  special bonds CPU = 0.000 seconds
  read_data CPU = 0.018 seconds

neighbor        0.3 bin
neigh_modify    delay 0 every 100 check yes

###################################################################
# oxDNA bond interactions - FENE backbone
bond_style hybrid oxdna2/fene
bond_coeff * oxdna2/fene 2.0 0.25 0.7564
special_bonds lj 0 1 1
Finding 1-2 1-3 1-4 neighbors ...
  special bond factors lj:    0        1        1       
  special bond factors coul:  0        0        0       
     2 = max # of 1-2 neighbors
     2 = max # of 1-3 neighbors
     4 = max # of 1-4 neighbors
     6 = max # of special neighbors
  special bonds CPU = 0.000 seconds

# oxDNA pair interactions
pair_style hybrid/overlay oxdna2/excv oxdna2/stk oxdna2/hbond oxdna2/xstk oxdna2/coaxstk oxdna2/dh
pair_coeff * * oxdna2/excv    2.0 0.7 0.675 2.0 0.515 0.5 2.0 0.33 0.32
pair_coeff * * oxdna2/stk     seqav ${T} 1.3523 2.6717 6.0 0.4 0.9 0.32 0.75 1.3 0 0.8 0.9 0 0.95 0.9 0 0.95 2.0 0.65 2.0 0.65
pair_coeff * * oxdna2/stk     seqav 0.1 1.3523 2.6717 6.0 0.4 0.9 0.32 0.75 1.3 0 0.8 0.9 0 0.95 0.9 0 0.95 2.0 0.65 2.0 0.65
pair_coeff * * oxdna2/hbond   seqav 0.0 8.0 0.4 0.75 0.34 0.7 1.5 0 0.7 1.5 0 0.7 1.5 0 0.7 0.46 3.141592653589793 0.7 4.0 1.5707963267948966 0.45 4.0 1.5707963267948966 0.45
pair_coeff 1 4 oxdna2/hbond   seqav 1.0678 8.0 0.4 0.75 0.34 0.7 1.5 0 0.7 1.5 0 0.7 1.5 0 0.7 0.46 3.141592653589793 0.7 4.0 1.5707963267948966 0.45 4.0 1.5707963267948966 0.45
pair_coeff 2 3 oxdna2/hbond   seqav 1.0678 8.0 0.4 0.75 0.34 0.7 1.5 0 0.7 1.5 0 0.7 1.5 0 0.7 0.46 3.141592653589793 0.7 4.0 1.5707963267948966 0.45 4.0 1.5707963267948966 0.45
pair_coeff * * oxdna2/xstk    47.5 0.575 0.675 0.495 0.655 2.25 0.791592653589793 0.58 1.7 1.0 0.68 1.7 1.0 0.68 1.5 0 0.65 1.7 0.875 0.68 1.7 0.875 0.68
pair_coeff * * oxdna2/coaxstk 58.5 0.4 0.6 0.22 0.58 2.0 2.891592653589793 0.65 1.3 0 0.8 0.9 0 0.95 0.9 0 0.95 40.0 3.116592653589793
pair_coeff * * oxdna2/dh      ${T} ${rhos} 0.815
pair_coeff * * oxdna2/dh      0.1 ${rhos} 0.815
pair_coeff * * oxdna2/dh      0.1 0.2 0.815
###################################################
#reset_atoms 	id sort yes    # THIS IS ON with EllipLJtest

comm_modify cutoff 6           # THIS IS ON with EllipLJtest

###
# Set up fixes
###

fix 1 all   nve/asphere   ###NVE ensemble
#fix 2 all   langevin   1.0 1.0   2.0   424242   ###Langevin integrator Tstart Tstop 1/friction rndseed

compute ekin all ke
compute epot all pe
variable ekin equal c_ekin
variable epot equal c_epot
variable etot equal c_ekin+c_epot

fix 3 all print 5000 "$(step)  ekin = ${ekin} | epot = ${epot} | etot = ${etot}" screen yes

compute q all property/atom quatw quati quatj quatk
compute diameter all property/atom shapex shapey shapez
dump 1 all custom 5000 dump.polymer id type x y z c_q[1] c_q[2] c_q[3] c_q[4] c_diameter[1] c_diameter[2] c_diameter[3]
dump_modify 1 colname c_q[1] quatw colname c_q[2] quati colname c_q[3] quatj colname c_q[4] quatk

###################################################

timestep 0.00001 #0.012

run 100000
Generated 0 of 6 mixed pair_coeff terms from geometric mixing rule
Neighbor list info ...
  update: every = 100 steps, delay = 0 steps, check = yes
  max neighbors/atom: 2000, page size: 100000
  master list distance cutoff = 3.9389877
  ghost atom cutoff = 6
  binsize = 1.9694939, bins = 508 508 508
  5 neighbor lists, perpetual/occasional/extra = 5 0 0
  (1) pair oxdna2/excv, perpetual
      attributes: half, newton on
      pair build: half/bin/newton
      stencil: half/bin/3d
      bin: standard
  (2) pair oxdna2/hbond, perpetual, copy from (1)
      attributes: half, newton on
      pair build: copy
      stencil: none
      bin: none
  (3) pair oxdna2/xstk, perpetual, copy from (1)
      attributes: half, newton on
      pair build: copy
      stencil: none
      bin: none
  (4) pair oxdna2/coaxstk, perpetual, copy from (1)
      attributes: half, newton on
      pair build: copy
      stencil: none
      bin: none
  (5) pair oxdna2/dh, perpetual, copy from (1)
      attributes: half, newton on
      pair build: copy
      stencil: none
      bin: none
0  ekin = 0 | epot = -3325.10089670739 | etot = -3325.10089670739
Per MPI rank memory allocation (min/avg/max) = 76.93 | 77.08 | 77.22 Mbytes
   Step          Temp          E_pair         E_mol          TotEng         Press     
         0   0             -1.7063583      0.043807843   -1.6625504      4.1783437e-07
5000  ekin = 1.04546787097799 | epot = -3382.60154964368 | etot = -3381.5560817727
10000  ekin = 2.0100516640077 | epot = -3510.39638373177 | etot = -3508.38633206777
15000  ekin = 2.78350992434985 | epot = -3613.56290944771 | etot = -3610.77939952336
20000  ekin = 4.94789637664148 | epot = -3613.67290035822 | etot = -3608.72500398158
25000  ekin = 7.51277942010495 | epot = -3510.50179980961 | etot = -3502.9890203895
30000  ekin = 9.6365198588106 | epot = -3387.56566741824 | etot = -3377.92914755943
35000  ekin = 10.6155548731186 | epot = -3341.05220851669 | etot = -3330.43665364357
40000  ekin = 11.7069087548697 | epot = -3405.56318317677 | etot = -3393.8562744219
45000  ekin = 13.9374379694264 | epot = -3537.92199621886 | etot = -3523.98455824944
50000  ekin = 15.9955163391177 | epot = -3633.00519044314 | etot = -3617.00967410402
55000  ekin = 18.2245135400949 | epot = -3617.92630484021 | etot = -3599.70179130011
60000  ekin = 20.7904905783906 | epot = -3510.60324772921 | etot = -3489.81275715082
65000  ekin = 23.9263626646151 | epot = -3397.89190276755 | etot = -3373.96554010294
70000  ekin = 27.5155119919475 | epot = -3362.17024820089 | etot = -3334.65473620894
75000  ekin = 30.6715790866868 | epot = -3429.14350821078 | etot = -3398.47192912409
80000  ekin = 32.0624339645771 | epot = -3553.51692215719 | etot = -3521.45448819262
85000  ekin = 32.5243096749105 | epot = -3643.68064061728 | etot = -3611.15633094237
90000  ekin = 34.3746760859254 | epot = -3628.12798213383 | etot = -3593.7533060479
95000  ekin = 33.9806796082903 | epot = -3517.28205449333 | etot = -3483.30137488504
100000  ekin = 30.5936014696343 | epot = -3403.59293746487 | etot = -3372.99933599524
    100000   0.010202969   -1.7192148      0.017418359   -1.6864997     -2.4761863e-07
Loop time of 140.893 on 8 procs for 100000 steps with 2000 atoms

Performance: 613.231 tau/day, 709.758 timesteps/s, 1.420 Matom-step/s
99.7% CPU use with 8 MPI tasks x 1 OpenMP threads

MPI task timing breakdown:
Section |  min time  |  avg time  |  max time  |%varavg| %total
---------------------------------------------------------------
Pair    | 1.6758     | 50.343     | 130.47     | 549.0 | 35.73
Bond    | 0.0075057  | 1.0177     | 2.6608     |  79.4 |  0.72
Neigh   | 0.025811   | 0.025815   | 0.025819   |   0.0 |  0.02
Comm    | 1.8009     | 86.845     | 138.25     | 442.7 | 61.64
Output  | 0.022197   | 0.023902   | 0.02521    |   0.6 |  0.02
Modify  | 0.026495   | 2.2724     | 5.8559     | 117.2 |  1.61
Other   |            | 0.3649     |            |       |  0.26

Nlocal:            250 ave         651 max           0 min
Histogram: 2 0 0 4 0 0 1 0 0 1
Nghost:             91 ave         152 max          31 min
Histogram: 4 0 0 0 0 0 0 0 0 4
Neighs:         4352.5 ave       11338 max           0 min
Histogram: 2 0 0 4 0 0 1 0 0 1

Total # of neighbors = 34820
Ave neighs/atom = 17.41
Ave special neighs/atom = 5.88
Neighbor list builds = 1
Dangerous builds = 0

write_data data_out.* nocoeff
System init for write_data ...
Generated 0 of 6 mixed pair_coeff terms from geometric mixing rule

Total wall time: 0:02:21
