LAMMPS data file via write_data, version 2 Aug 2023, timestep = 20000, units = lj

5832 atoms
1 atom types
5832 ellipsoids

0 19.261242285218657 xlo xhi
0 19.261242285218657 ylo yhi
0 19.261242285218657 zlo zhi

Atoms # ellipsoid/kk

3827 1 1 inf 19.222315008003942 17.683522800287733 0.017227592901328137 -1 -1 1
5823 1 1 inf 4.251907736119093 1.4292139676531876 19.07657858033898 0 1 0
4267 1 1 inf 18.77474417466734 2.9435987418706153 0.836302252148148 -1 0 1
3579 1 1 inf 3.1557108215525727 5.274583552928454 3.4799576925578 1 0 1
2385 1 1 inf 5.165931481158909 0.4905252109911569 17.784400811999568 0 0 -1
1933 1 1 inf 10.77512167040016 3.564567337935317 17.320845601740047 1 1 -1
2408 1 1 inf 10.351112474032059 16.001572043698836 1.152383566431822 0 -1 1
3252 1 1 inf 17.304539855895552 0.31064785485583796 17.657820882770196 -1 0 -1
3623 1 1 inf 14.38589645462944 16.327865486665647 19.20823837092922 -1 -1 0
4123 1 1 inf 15.643831205128023 2.6299852268206627 1.9717700804226086 -1 1 1
3889 1 1 inf 1.0954505375048014 1.0571399291775256 15.352260610831507 0 0 -1
5220 1 1 inf 1.3623036349392557 4.0642768573003 19.1132886256448 1 0 0
1833 1 1 inf 3.9762101132371095 0.22954454249149253 17.918397838945936 0 0 -1
1303 1 1 inf 12.023071319706727 0.433442347239971 0.8672410786821435 0 0 1
2429 1 1 inf 12.97988359066034 2.4072235457154103 19.142643148001643 1 0 -2
448 1 1 inf 18.46109353357477 0.35793374145836265 1.45747913691832 0 1 0
703 1 1 inf 3.9302053046762833 2.0057478264020876 16.604894686561533 0 0 -1
4462 1 1 inf 18.411433065386852 0.000989792263865752 3.1496836198222264 0 0 1
914 1 1 inf 2.2634744093820607 2.126083867116298 16.5036967145258 0 1 -1
1550 1 1 inf 3.857597262192321 18.419169954698507 18.414850131716577 0 0 -1
5771 1 1 inf 7.300463651504941 1.987396838361363 1.075489921872998 0 1 1
5398 1 1 inf 8.479757417905521 3.532756695210642 0.6287058386221634 0 0 1
4995 1 1 inf 8.713979955170075 18.35858954671502 1.6938616324635423 -1 -1 0
4564 1 1 inf 13.075954119228978 1.219832559625824 0.648826892631845 -1 0 1
2328 1 1 inf 18.047855793480345 3.4659077891845813 0.10534077523352334 -1 0 0
2093 1 1 inf 0.48261960592849434 5.493014874764463 17.967308123586207 0 0 -1
3822 1 1 inf 3.9702122080639044 2.203952125344269 0.9362147662687983 1 1 0
3050 1 1 inf 18.144855675347486 2.946473165899575 4.594276707659486 -1 0 0
19 1 1 inf 3.8244146902680196 2.8802210951392673 2.846937398318983 -1 0 0
924 1 1 inf 9.133784784763789 2.965385568628312 17.230054110119966 0 1 -2
5170 1 1 inf 12.693042547700179 1.2354657336679984 1.238419030252791 0 1 1
1764 1 1 inf 16.334879206387335 2.341580221595023 2.7639299321242237 1 0 0
5492 1 1 inf 15.202796197294054 4.910162865693951 18.334332551484323 0 1 0
3189 1 1 inf 18.045748374552385 4.081468362682112 18.611517652471942 -1 1 0
1847 1 1 inf 18.817792181787254 1.4999056677226787 19.060070263579963 0 1 -1
3780 1 1 inf 1.563089304376764 19.12943735167116 2.190691874002983 1 -1 1
1340 1 1 inf 2.1758810062600826 7.701748718427198 1.8080669080735043 0 0 0
158 1 1 inf 7.636455272681075 6.28607943767618 3.765057268629513 1 0 0
4486 1 1 inf 5.238012380760023 2.8411708628940886 18.039332680591915 0 0 0
206 1 1 inf 6.078101554710792 1.6998482543326396 18.777762498416763 0 1 -1
5261 1 1 inf 11.473114699242668 2.842278600412339 0.4782904913954051 0 -1 2
4527 1 1 inf 12.376628298824752 4.842809529467393 1.8761087067066604 -1 1 0
4883 1 1 inf 15.03430553301207 1.606277708993925 0.34643040385716706 0 0 1
1805 1 1 inf 15.957162641267786 4.188283789954677 17.657440981719734 0 0 -1
1037 1 1 inf 16.484406035853947 4.004305752211336 1.8311451965827394 0 0 0
1259 1 1 inf 0.8012003173756204 8.840518031372417 0.3760209012005335 1 1 0
5562 1 1 inf 3.8529116002279293 4.252540015131936 4.747127280358208 1 0 1
3677 1 1 inf 4.040142127737228 5.440617124310598 1.1519611361914226 0 0 1
3430 1 1 inf 5.07534856025677 9.01702427177197 18.660557738798335 0 0 -1
160 1 1 inf 10.34957700266314 17.672015145616328 3.349770215215487 0 -1 0
2565 1 1 inf 10.829972023440877 0.5454587740511665 0.9996127516384974 0 0 1
2260 1 1 inf 0.34641482455098854 6.430706496605134 17.2829844241232 1 1 0
1572 1 1 inf 16.22449585184893 4.987145664593951 1.1014304705756304 -1 1 0
4017 1 1 inf 13.416570888009597 6.347712194490221 15.511010741565956 0 1 0
89 1 1 inf 18.542924862599747 3.995460018488296 1.9195691974583353 0 0 0
3566 1 1 inf 1.3904253193665157 5.6394830056435765 1.699256200153338 0 0 0
5516 1 1 inf 8.106698945247137 6.007542856310478 1.6588974638592622 0 -1 1
3580 1 1 inf 9.42650823728799 4.044611520714016 2.4298632211864377 0 0 1
288 1 1 inf 16.010666121436753 4.3641910113453815 0.6260800054486234 1 0 0
2382 1 1 inf 14.206235586983945 5.976159095853477 0.23607263374845852 0 0 0
3863 1 1 inf 18.625540966318862 5.3793769277590995 2.919890206374201 0 1 0
3550 1 1 inf 0.10108526349421466 7.012435540439369 16.207452587888554 0 1 0
597 1 1 inf 5.271542404372473 6.461467089883009 5.071834156574404 0 1 0
3486 1 1 inf 5.593881752895907 3.776188736455727 2.930794815500535 0 0 1
2943 1 1 inf 7.153520625833764 7.996048934040322 1.5078342514148455 1 0 1
2736 1 1 inf 11.191305492122902 5.405376857423487 17.174429587911426 0 0 -1
3094 1 1 inf 12.191966463087141 6.4700326774019405 15.112828768437256 0 0 0
4064 1 1 inf 12.027708760548133 6.868963776700235 0.05974140203909218 0 1 1
2099 1 1 inf 18.283663180201216 5.813220933471269 1.7655083352716225 0 1 0
3307 1 1 inf 15.074556081086222 5.8119136366448885 2.674106368341479 0 1 0
1042 1 1 inf 3.2412229479129597 3.4847319609500946 2.535629802615594 1 0 0
4254 1 1 inf 3.861678130320618 6.09512781449928 1.9138473884103457 0 0 1
2172 1 1 inf 13.83377363051226 2.644541380433109 17.99733208025646 0 1 0
4823 1 1 inf 13.55551271694785 4.266381312726697 1.0981036282631798 0 0 1
613 1 1 inf 12.144827785931502 7.384797097374225 18.55867964371555 -1 1 0
3286 1 1 inf 13.30808469517022 10.260118494035071 0.47009092857855983 0 0 0
5611 1 1 inf 17.251164426986772 3.3077159603538564 0.3186861831894414 0 -1 1
246 1 1 inf 15.359521395614202 7.406661261311143 16.817507413172027 0 0 -1
2137 1 1 inf 16.882543574103163 9.101934081418618 2.996624200518663 0 1 0
1612 1 1 inf 8.167973962337326 7.513941458452873 18.510184683012334 0 1 -1
1039 1 1 inf 11.600187022599588 5.929598896038203 0.01267305261517393 1 0 0
967 1 1 inf 9.86361873657393 3.0338439322624744 1.5440386585733386 -1 1 0
4152 1 1 inf 18.511421995273707 6.50571491063316 1.8678499392894796 0 1 1
5138 1 1 inf 16.412507853007575 5.907376277430558 1.9400795999687597 -1 1 1
5439 1 1 inf 1.384169718065294 9.1100267502492 2.2263279966636897 0 1 1
4041 1 1 inf 3.7873151109246925 9.13116936178545 5.386173397024915 0 0 1
562 1 1 inf 2.3078569990846245 6.319450878608517 0.3930945453981395 0 0 0
3167 1 1 inf 6.287857525945708 8.020388626379718 0.25958570121154917 0 0 1
614 1 1 inf 7.412723370973641 9.428731761029235 4.671663715705439 0 1 0
5259 1 1 inf 5.962815759397218 5.5517498321661884 1.6075757241711217 0 -1 1
5494 1 1 inf 9.793251236830065 3.843459468220019 0.4794149199745521 0 1 1
4476 1 1 inf 13.265007382092529 10.944601433923568 1.9668685805429564 0 1 0
4907 1 1 inf 18.200635524144484 8.517882654968052 18.673795062976374 0 0 -1
2253 1 1 inf 5.763259549098092 6.384908961314497 3.221454332451412 0 0 1
4453 1 1 inf 5.562562350364446 9.981216255612507 0.13121834001490068 0 0 1
3791 1 1 inf 9.304344846469771 8.784088305037093 0.018160592878828652 0 1 1
2872 1 1 inf 7.440164649149899 9.746691508519618 2.080251872257974 1 1 0
3364 1 1 inf 13.453587209548019 7.101478891843412 1.9758734308702424 0 0 1
4473 1 1 inf 10.359428700604965 6.10010592516695 17.05135601998076 0 0 0
729 1 1 inf 1.6346073869720643 11.617979409065596 0.35028869997664935 0 0 1
4683 1 1 inf 1.7177643924932522 9.728574571822621 0.2131098193841891 0 -1 1
3896 1 1 inf 6.993157439790938 9.195978805883215 18.770614433345326 0 -1 -1
2929 1 1 inf 10.904259967077444 9.460615760493308 19.149196212924764 0 0 -1
3867 1 1 inf 12.370866786224429 9.670590211075245 1.3918253390255944 0 1 0
4654 1 1 inf 12.154009569708318 10.127739086849306 17.742180179632058 -1 0 0
4209 1 1 inf 13.396646849479424 6.654970557023025 19.166396660648385 0 1 -1
4480 1 1 inf 18.626357216779443 10.656218441483102 0.9115355357442336 0 0 0
1320 1 1 inf 2.475359556828682 9.260823276997888 18.99560728619762 0 0 -1
2823 1 1 inf 18.298849152771034 7.3754413537718495 17.55441953124598 0 0 -1
2649 1 1 inf 5.5857760313424825 11.163361965129551 1.0252431529728216 0 0 1
5276 1 1 inf 3.682950508899491 8.351611010544557 1.0446415291873734 0 0 1
4171 1 1 inf 9.155125050818393 13.648468184357377 17.17878559022903 0 1 0
1545 1 1 inf 10.651819211419328 7.101943668171823 0.31052919688583897 0 0 0
3831 1 1 inf 8.550699998583784 6.877234943088267 1.0759182532104195 -1 0 1
2863 1 1 inf 16.203291786332667 8.417627413729086 19.16083308679062 0 0 -1
2535 1 1 inf 18.664640121966073 12.301626287587963 1.15348399188507 0 0 0
4454 1 1 inf 15.064551674852863 8.14186439409961 1.328868045842679 0 0 0
5676 1 1 inf 14.315834982361096 14.326410145518771 0.31207362291987334 0 0 1
3403 1 1 inf 15.240983873581218 10.023917534257563 0.37208900424464736 -1 0 1
4581 1 1 inf 15.022254458856146 13.367807865480355 16.228970353711233 0 0 0
5651 1 1 inf 17.307194671094205 10.843382558080588 1.8092986406416303 0 1 2
155 1 1 inf 1.9421953276985586 12.447035059674922 18.741184086791897 1 0 -1
774 1 1 inf 19.06232106191018 6.80265670466837 1.229846236007189 0 0 0
1076 1 1 inf 5.726578330930679 11.589324489867284 3.8615506754718316 1 0 0
4749 1 1 inf 6.039985993287715 11.190074108524255 0.4998004451170498 1 0 1
5514 1 1 inf 7.556753819321536 9.952248768686575 18.545212285503588 0 -1 0
5012 1 1 inf 7.792132916349783 10.359429338421634 1.2809705553823667 0 0 1
2688 1 1 inf 7.688530936929423 12.358153553728625 16.98574553478731 0 0 -1
519 1 1 inf 9.384768565954726 10.26145685461808 18.99603651099766 0 0 -2
1693 1 1 inf 15.229267933491187 12.35367506762875 19.008110461485142 -1 0 -1
631 1 1 inf 1.1464349689265574 13.612876711092529 17.14929486932363 -1 0 -1
492 1 1 inf 5.564721134249798 8.945279431126663 1.9160835272159285 0 -1 0
1192 1 1 inf 6.5636607492722465 8.98666472840154 0.14947478286493968 -1 1 0
3556 1 1 inf 5.678337644940828 12.032369405154869 3.108731218987993 0 0 1
5587 1 1 inf 8.063156088924691 11.64069726841954 0.47664943054453696 0 1 1
4310 1 1 inf 9.006156388995791 10.29197164124166 0.8428113897141617 0 0 0
1472 1 1 inf 10.8786799794663 8.597538878542828 0.9524761329067484 0 0 1
3989 1 1 inf 15.13099182919948 7.351911051491477 18.73368828669899 -1 0 0
855 1 1 inf 15.652621653255023 10.690344793785874 17.144858626746302 0 0 -1
5142 1 1 inf 7.535047308496601 13.88604411635619 7.89625289488063 0 0 1
5827 1 1 inf 2.8985521140245525 8.411796180817268 2.531379321111854 0 0 1
2948 1 1 inf 7.962224452172467 14.828459413573126 18.50049216267537 0 -1 -1
3739 1 1 inf 13.647349291947512 12.865712864189838 1.7915185218537681 0 0 1
5253 1 1 inf 17.33764838198525 10.522710408234877 18.85857058700738 0 -1 0
4834 1 1 inf 15.901822901030135 8.598220348065878 1.5484709574591176 -1 0 1
1163 1 1 inf 15.098778238914054 11.833256469165734 2.8684671143015588 0 0 0
1823 1 1 inf 0.9871405990356441 13.9032522051814 1.3572224384850404 0 0 0
5189 1 1 inf 6.2596003031234355 10.436093215392878 18.982867144328136 0 -1 0
3477 1 1 inf 5.116010046130683 15.080525721258823 1.7797918738338534 0 1 0
673 1 1 inf 10.069041924648872 11.853695445344151 3.01872888576725 -1 0 0
3992 1 1 inf 10.338266780434234 12.213687553431821 0.13022826220046715 1 0 1
4853 1 1 inf 8.888704092576761 15.887417916592055 16.464239660948373 -1 0 0
4505 1 1 inf 14.539541163285122 15.999533238789247 18.40748292928835 0 1 -1
1961 1 1 inf 17.003956652248316 14.506241255357876 1.8943221791652156 0 -1 1
5635 1 1 inf 17.910159990055636 12.239854748852942 18.706653248446543 0 0 0
2750 1 1 inf 18.192198757767482 15.301578467193162 18.456017292500366 -1 -1 -1
306 1 1 inf 1.1731248769424958 14.850634191545614 0.3171549117848789 0 0 0
4142 1 1 inf 6.173660521433201 13.645567076359653 15.070197607350384 0 0 0
1253 1 1 inf 4.212824319330193 11.073218540143033 19.144805997240557 0 1 0
3506 1 1 inf 3.2273058713168004 15.956733320380764 18.71065069357834 0 0 -1
4378 1 1 inf 3.192803620229499 13.019334185346775 1.123745973901294 0 0 1
2905 1 1 inf 7.601866011681997 16.02111144646818 0.314913111776704 0 1 1
4783 1 1 inf 7.147730032039791 17.47800430006686 18.319841613337662 0 0 0
3978 1 1 inf 10.119569753749895 16.626417755650575 0.23576905777421436 0 -1 1
668 1 1 inf 15.032627350530834 12.03546237640218 17.17143634600269 0 -1 -1
5831 1 1 inf 0.21511536087289865 16.25069321284879 18.492260794821224 1 0 0
4134 1 1 inf 0.9070832142871438 16.18568272876368 18.81298638280883 1 0 0
779 1 1 inf 2.405846781610768 16.13982039358261 17.9982610356447 0 0 -1
4418 1 1 inf 5.758815424104521 14.86702803452807 2.3405741363078065 0 0 1
1123 1 1 inf 8.075662161340832 15.67317370060661 0.21231359962011104 -1 0 0
2856 1 1 inf 12.137381820135436 14.877450641754553 0.8707348028848242 0 -1 0
3541 1 1 inf 18.5859534310338 16.886618314815884 15.9792728599456 0 0 0
4420 1 1 inf 3.5539541406785418 14.920901060043594 2.597913067562491 1 0 1
5697 1 1 inf 4.761155496489357 18.64595421666473 18.657554211371547 0 0 0
746 1 1 inf 9.307767505998871 14.80351251239114 17.251229735716986 0 0 -1
5145 1 1 inf 5.086658750023963 18.271967485554452 19.260102671631202 0 0 0
5056 1 1 inf 11.612068900496054 18.007903223476607 2.6114323566134394 1 0 1
3082 1 1 inf 9.960475352914417 15.305652836522874 0.8536351676575218 -1 -1 0
489 1 1 inf 0.06046597893701231 15.472401430195182 0.08235972125801887 0 0 0
4807 1 1 inf 6.908778886791294 16.844488679917806 0.15180815343752682 0 0 1
5441 1 1 inf 6.863787366235412 11.597303486135402 17.19378980685966 -1 0 0
3899 1 1 inf 10.487184451737804 18.426603993496585 19.24632091641584 0 -1 -1
5735 1 1 inf 15.54122550983261 14.952467344464624 1.029147908500371 0 0 2
2756 1 1 inf 18.24723196983744 16.091597881611374 3.9488217605559432 -1 -1 1
1511 1 1 inf 3.336032108033816 15.504442748575752 16.55592733812021 1 -1 -1
5082 1 1 inf 2.5682043720016585 17.071593440250446 0.4847626857187142 0 0 1
242 1 1 inf 2.0364776053319837 17.663210824401837 2.777870548861446 0 0 0
660 1 1 inf 4.953891644593481 17.940119905042007 17.806295330871293 0 0 -1
3140 1 1 inf 2.403555127763891 15.912151534674637 16.814307760896767 0 1 0
4411 1 1 inf 7.783350657415433 15.735751981136533 2.766888125901233 0 0 1
2481 1 1 inf 9.126268852382438 17.465014227741268 0.20273031037064415 0 -1 1
2925 1 1 inf 12.237336796686968 14.18189991429468 0.015360610807681523 0 -1 0
3603 1 1 inf 13.06892171863208 18.124747436622123 2.466134329472708 -1 -1 0
5468 1 1 inf 18.132996775016352 1.1143859100728943 19.084232000787487 0 2 0
4824 1 1 inf 18.922674284485904 1.344841068096029 18.09693517699106 0 1 0
1319 1 1 inf 0.5724627304610881 14.329568941356671 0.6788396206033781 0 -1 0
2884 1 1 inf 3.1267676801776156 0.7858027356405541 19.055770656230553 0 1 0
410 1 1 inf 9.876022662775792 16.2337513988309 3.366464231310098 0 -1 -1
4161 1 1 inf 8.800172270288252 16.662539423583226 0.2828706689750098 -1 0 0
2862 1 1 inf 10.474392724811562 0.22194261655422678 18.44354615012906 1 1 -1
899 1 1 inf 13.48086756526718 1.878753915780454 0.5387799924390169 0 1 0
3584 1 1 inf 0.4856855669598837 17.421266640154617 4.259704627273095 0 0 1
2643 1 1 inf 4.439900121175959 18.853109112548328 17.109935644164448 1 -1 0
463 1 1 inf 8.72159177502355 1.2018841580801434 17.05535183123114 0 1 -1
360 1 1 inf 11.388768847049409 17.648716803564604 18.6840404152197 0 -1 -1
4549 1 1 inf 16.684339378144582 18.44154131585403 18.208132628106036 -1 -1 0
3766 1 1 inf 12.198381263097371 17.77363309327169 1.0333414945971007 0 0 0
4604 1 1 inf 18.173634653266927 17.928950561044424 17.20138382491574 0 -1 0
4740 1 1 inf 18.76905909891705 0.23160935172638733 16.71238785990675 -1 1 0
5402 1 1 inf 8.20413189031653 16.996055741551636 3.7105626108672722 0 0 1
2912 1 1 inf 9.296634499122451 1.2049420187889732 19.081902772388055 1 1 -1
3692 1 1 inf 10.508183174269249 0.011041355176896325 0.6677222211109219 -1 1 1
5177 1 1 inf 14.64896201860105 17.722982256886535 19.143184734396534 0 0 -1
2579 1 1 inf 12.540663877778718 17.438711489239036 4.501036922431166 0 0 1
4966 1 1 inf 14.518825750237454 16.594510163289055 1.8023557662962424 0 0 1
2254 1 1 inf 18.082087312548516 18.377308232406897 18.438399635115637 -1 -1 -1
732 1 1 inf 19.014850451907698 18.47146885600779 17.259989895348653 -1 0 -1
5743 1 1 inf 2.2301321269645795 18.69351296423636 0.2065079366382396 0 0 1
4216 1 1 inf 6.669408031090802 0.5599875568945153 17.913012722638353 0 0 0
4435 1 1 inf 9.917550788071212 1.689399414648424 1.7919545948779485 -1 1 1
1006 1 1 inf 12.913494077917196 3.4706234106000546 3.922148376917803 0 0 0
2853 1 1 inf 14.18329119477727 1.8040866824665442 18.65826207526463 0 1 -1
2504 1 1 inf 14.192850781233211 0.3261221884857473 3.1564923799264695 0 0 1
856 1 1 inf 5.50020255860331 3.6377304159272374 4.5373968212757285 1 0 0
2859 1 1 inf 3.0835428177144673 2.5633294436623735 1.1522590199484497 1 0 1
5678 1 1 inf 4.014743349638269 0.6939461904482642 2.547328255887201 0 1 1
1243 1 1 inf 11.051075313538336 1.8148734385738727 3.0727160912207454 -1 1 0
1834 1 1 inf 10.767287973204706 14.576240205574406 3.51490894073953 0 0 2
357 1 1 inf 0.09015112289254287 1.1737701287803954 0.5172481575978506 1 0 0
2702 1 1 inf 2.273237457508955 0.07091610551300982 18.882011994227778 0 0 0
2399 1 1 inf 7.505237153627378 3.886208253794137 0.08876491602474602 0 0 1
637 1 1 inf 10.995996630743866 1.6256869179174327 18.973164902164694 0 1 -1
5035 1 1 inf 12.130136780053814 18.91169064647677 1.4962763244874386 0 -1 1
312 1 1 inf 14.789643099951817 0.6808833253331557 0.12318712446697713 0 1 0
4946 1 1 inf 13.715836032482978 3.8823125730893517 19.24568604435905 0 0 0
3485 1 1 inf 14.25541896890635 3.6163605710353255 4.042894764285877 -1 1 1
151 1 1 inf 13.434980743091115 1.716172976498728 2.085768879316519 0 0 0
1946 1 1 inf 4.745710894680402 4.007584227877726 2.229222285034461 0 0 1
3164 1 1 inf 6.110198430755884 18.675387051836037 2.560503018449525 0 0 1
1129 1 1 inf 11.732837301566127 0.7991642343361867 1.4566597064378035 0 1 0
2128 1 1 inf 12.30365196191479 1.9785960397526199 1.1326461003090953 -1 0 1
1763 1 1 inf 12.007468461326516 1.601411616456533 2.5108286957490655 1 0 0
4676 1 1 inf 15.248704238222427 3.9430712787559714 3.16821366597124 0 1 1
1038 1 1 inf 17.473733229903644 0.27437890210526594 1.8865314679623864 0 0 0
4313 1 1 inf 16.799693000167462 5.932707477533759 0.0014474992863142688 0 0 1
3698 1 1 inf 18.51947173243255 2.1027168887833163 2.69912517477603 -1 0 0
1283 1 1 inf 18.153864710747506 5.212770336272683 17.635620963186625 -1 1 0
4631 1 1 inf 6.493637207223329 2.6368313632915394 0.9748861700976824 0 0 1
5556 1 1 inf 8.45804720673142 0.7224895620957278 18.27226463667817 1 0 0
4006 1 1 inf 16.223716386255575 2.0089455769961364 0.05906445955937972 0 0 1
1843 1 1 inf 0.6672530527728117 3.26439465298158 17.706769775817452 0 0 -1
5727 1 1 inf 3.9306721253893477 5.547987235299653 2.5490758565500156 0 0 1
1068 1 1 inf 4.391565116457098 4.943691289754459 2.258428934950329 0 0 0
1951 1 1 inf 8.630623743823776 2.6688282843985567 18.242860493093495 0 0 -1
63 1 1 inf 10.933718648016953 4.916942613561307 18.65799929233597 -1 0 -2
5052 1 1 inf 9.455193301982248 5.527116970815037 0.6696655584588032 0 0 0
3987 1 1 inf 14.820757184962204 2.8494324578021213 18.992026996464965 -1 -1 0
3147 1 1 inf 17.833864953040436 3.5043206184838405 2.2025814402226387 0 0 0
2044 1 1 inf 1.8503026096714277 18.689892380404668 17.31891946105905 0 -1 -1
2407 1 1 inf 1.1151309568622718 7.862650356134575 17.931978385162328 0 1 0
4707 1 1 inf 4.961955466020926 8.027418821737081 0.7287254416951603 0 0 1
2360 1 1 inf 3.9883436361005513 6.123478392335371 3.7761201975386074 0 0 0
4984 1 1 inf 7.6891237564460315 3.4713116619636337 2.6295288201151017 1 0 1
2213 1 1 inf 7.717196932616414 4.63553979687089 2.55237413663522 0 0 0
1385 1 1 inf 10.114053720977182 6.555575571842984 1.4267147778545497 1 0 0
2636 1 1 inf 8.688580842192426 4.839800201242098 19.23338154816302 -1 0 0
1876 1 1 inf 9.771010251897717 6.165383777183591 18.708997439964463 -1 0 -1
4882 1 1 inf 18.417311097230762 5.162978394641647 0.8835473994573941 -1 0 1
1583 1 1 inf 18.283338575510626 7.417750617182602 18.21611119256387 0 1 0
2126 1 1 inf 0.8405745470612754 5.2564916948091085 16.346969309848948 0 0 -1
3032 1 1 inf 2.87986858214428 3.2728405489761623 4.89148410788591 0 0 1
351 1 1 inf 5.241249856020067 2.4728764209823204 19.10021022492363 0 -1 -1
2309 1 1 inf 5.882580567172145 2.4891146411658 4.524192156847292 0 -1 0
973 1 1 inf 10.188371267118164 2.88381076163829 4.392896302113269 -1 0 0
452 1 1 inf 7.808977858538309 1.979034820935349 16.859538952403717 0 0 0
3029 1 1 inf 14.571135782202019 3.63515791792651 16.979927389961595 -1 1 0
3568 1 1 inf 17.88674379173649 6.476088890148288 16.345505530972627 0 0 -1
1702 1 1 inf 0.03924312210995487 6.051196854332391 1.2358466536944457 1 1 1
5824 1 1 inf 3.108692813187334 6.5704135780035955 1.2387849290875264 1 0 1
5234 1 1 inf 18.94435227496988 6.794388442384745 18.690887636410814 -1 0 0
3768 1 1 inf 0.645254020860301 5.071682749564681 0.24869164353559636 0 0 1
749 1 1 inf 5.5789915678891 5.886723484170769 1.0214695324243792 0 0 0
2820 1 1 inf 8.416807946067808 6.268912508744067 4.474200126051616 1 1 0
2090 1 1 inf 7.455029862050575 7.776390772375625 17.980868657448756 0 -1 0
5801 1 1 inf 7.5838546559636475 5.147071838364499 16.742749291046685 0 1 0
5610 1 1 inf 6.019761415513916 11.268863761964207 1.5112924689513105 0 0 1
4986 1 1 inf 10.302875331467003 7.83369527635449 1.613816971588863 0 0 0
1530 1 1 inf 13.85130784878298 6.509447765842985 1.1460921688200274 0 0 1
2972 1 1 inf 13.255852051202977 7.724801577925932 0.6043220975864485 -1 0 1
4111 1 1 inf 2.2404821370240837 6.620341683091379 3.2700179114040746 0 0 0
4680 1 1 inf 5.234127347832672 5.68406610418982 4.347229304578262 1 0 1
4481 1 1 inf 4.130064330719246 4.908697531065084 5.510785765169012 1 0 1
2482 1 1 inf 9.308798756017664 7.083776595718494 16.760564371609917 1 1 0
2046 1 1 inf 3.9094363983624367 8.59570246762169 2.2873126665046346 0 0 0
1397 1 1 inf 10.194210152936604 8.44915937488384 3.6518526799890747 1 1 0
506 1 1 inf 8.92679981299777 9.00638921934007 1.9377620052733875 0 0 0
2953 1 1 inf 15.825281153559045 8.654463088056785 4.707901300943652 -1 -1 0
30 1 1 inf 18.084826546842958 9.292456512783806 1.1842154644910052 0 0 0
1285 1 1 inf 16.009593816508843 9.822615548992513 2.9905824024662637 -1 1 0
754 1 1 inf 1.8866318936161617 7.966067440464157 0.25772706913136045 1 0 1
3291 1 1 inf 2.560080141048295 4.458208043387299 2.8574279363020474 0 0 1
3473 1 1 inf 3.502240552686532 7.492057283525709 17.679153737589523 1 0 0
5501 1 1 inf 6.326991346867996 7.648499144069806 1.687674408287115 1 0 1
3830 1 1 inf 16.337835786266673 6.934271396780073 0.9289025751597957 1 0 0
4697 1 1 inf 16.326092734652327 6.6659956859380065 19.200321755705097 0 0 0
2554 1 1 inf 1.3396858974173251 9.01212045462044 18.334716616500497 1 1 -1
3687 1 1 inf 15.35732686469028 6.030645303889698 15.817552410337107 0 0 -1
3445 1 1 inf 0.7440599747125378 8.625813398713902 18.584130724093797 1 0 0
1775 1 1 inf 3.078641570368878 9.326882128604977 17.813621999590517 0 0 -1
4895 1 1 inf 2.894024200027338 10.702483626042378 1.8594586517202996 1 0 0
366 1 1 inf 5.998493682961852 6.759047330597021 3.7328709868970353 0 -1 0
2825 1 1 inf 7.431633183401961 5.9920839281890474 0.6680117530385572 1 1 1
2818 1 1 inf 12.592114635134008 12.901422397096248 1.4804782569146233 0 0 1
4806 1 1 inf 14.724942056006682 6.224308675105791 3.7115229791750033 0 1 1
2485 1 1 inf 15.096876073194826 5.514409451697412 0.5455770197587906 -2 1 1
1063 1 1 inf 12.151982727165503 4.4841701510349266 17.885140639885968 -1 -1 -1
4089 1 1 inf 17.120649473364953 8.723141800088783 2.2706443736327286 -1 0 1
1809 1 1 inf 1.8119513231619657 10.206286965403175 18.512725768156788 0 0 -1
5300 1 1 inf 3.3450602748834184 7.586770465572742 2.1733821402942852 0 0 1
5415 1 1 inf 3.0015628017442304 6.329162178374248 3.5350737032319053 1 0 1
1324 1 1 inf 4.507906515165873 5.3262255171111565 0.5774917861538807 0 0 0
442 1 1 inf 5.773579864684809 8.122444709661695 4.285577126937711 0 0 0
2238 1 1 inf 10.026171784457354 6.106759319143677 16.322672400799526 -1 0 -1
3217 1 1 inf 14.131467280905337 14.119655122891952 3.6486352245210654 0 1 0
5360 1 1 inf 18.043190277202118 9.030725555463098 3.687681749443118 0 0 0
190 1 1 inf 19.132768365712423 10.4214564461279 1.9188032300948545 -1 0 0
5570 1 1 inf 5.863742464719236 10.467433247220372 3.268411241154566 0 0 1
3441 1 1 inf 7.781455147442775 7.33421120886977 3.5115194856593024 0 0 0
3704 1 1 inf 8.54953768976084 10.255518890754352 1.8516271038146483 0 0 1
162 1 1 inf 12.476219060548669 9.745724955167846 4.137784526323814 0 0 1
898 1 1 inf 14.020130421155859 10.852400380065264 17.647461528091 0 1 -1
3237 1 1 inf 12.579732993863653 8.212888015817912 2.3675894488550573 0 1 0
210 1 1 inf 17.655771193155758 9.320620830330402 18.00412842274385 -1 0 -2
4982 1 1 inf 0.23329542036302472 10.157199696435232 18.080818652369388 1 0 0
2276 1 1 inf 0.38853048232119525 11.444907255479745 2.8644201385079957 1 0 0
1735 1 1 inf 4.157841208304029 10.907740494935384 2.2739703500926143 1 -1 0
5540 1 1 inf 1.6110694468430238 8.67471265954187 16.770687333007416 0 0 1
4383 1 1 inf 1.8873580943625348 9.398984196924259 3.941406487249734 0 0 1
297 1 1 inf 4.751238993760826 9.371702892539588 1.259451737916751 0 0 0
4576 1 1 inf 4.479105914723644 9.019751512222006 19.168293419142945 0 -1 0
4962 1 1 inf 4.833586406546443 8.265168531370952 1.7991942120367854 1 0 0
4699 1 1 inf 8.266115009557428 7.2956878898418935 3.0640760619401393 -1 0 1
5766 1 1 inf 16.63724075790825 9.9890283734349 18.962582679753048 0 1 0
1273 1 1 inf 14.739157903146552 8.710269109628534 1.7671115474670565 0 1 0
3280 1 1 inf 3.1303332963098414 9.020208651248513 19.024849964535605 1 -1 -1
2745 1 1 inf 0.48035280038169725 14.080768814885328 18.6409508930816 0 0 0
3125 1 1 inf 4.456881074240948 8.165186048426936 1.2487960162012255 1 0 1
5095 1 1 inf 6.6232017290456655 11.945463502893817 18.906678832588355 -1 0 0
2536 1 1 inf 9.424952142226383 11.141330723378864 0.6270314661747693 1 1 0
1753 1 1 inf 10.853270211660616 11.110990392365485 0.8471887734885313 0 1 0
5250 1 1 inf 12.831417028061347 11.730534798639079 0.8779314792449472 0 -1 1
4363 1 1 inf 9.97986279228726 14.854309491788463 0.08142827073593945 -1 0 0
2348 1 1 inf 15.519369728141978 10.67226393724274 0.27190289797043604 0 0 0
4464 1 1 inf 17.821359916624612 11.591523050102936 2.3977236724420536 0 -1 1
789 1 1 inf 16.650793382309995 10.41799504975093 0.9454942921980479 -1 0 0
4930 1 1 inf 16.221092506894 10.994370353461944 18.960190768866653 0 0 -1
2271 1 1 inf 3.288728739795441 10.38861983714178 0.6359141639763242 0 -1 0
3673 1 1 inf 7.090296594369306 10.903512946393374 1.5012616186102328 0 -1 0
2188 1 1 inf 7.025362341940636 12.959461840674157 18.5347761426657 1 0 0
2226 1 1 inf 15.749720279464098 10.834637027499795 2.519625483893779 -1 0 0
1818 1 1 inf 16.152482103413032 11.265493027286276 0.9389070793491964 0 0 1
1749 1 1 inf 1.7326806363732823 13.065700940315809 18.07852776710459 1 0 -1
2786 1 1 inf 0.6171791487698477 13.139455914929465 18.317393576371533 1 0 0
1721 1 1 inf 3.423425184843657 11.084806188144613 18.051459464997055 0 0 0
118 1 1 inf 3.7258169715858402 15.313674459971423 1.9184184315155828 0 -1 0
1536 1 1 inf 10.142821560278227 11.785376556498385 4.884083617391737 0 0 -1
5625 1 1 inf 5.9010364523231 15.406463644873346 1.7152132034869758 0 0 1
496 1 1 inf 8.769407281766235 14.84257466966055 16.37266794189298 0 -1 -1
5330 1 1 inf 14.381946082614693 11.813029659723775 1.6912317973181592 0 -1 1
845 1 1 inf 13.657554480739972 13.911582926278703 18.74574938605512 0 0 -1
2980 1 1 inf 0.1739493413231907 11.699832105627669 19.136197603227515 1 -1 -1
10 1 1 inf 16.449510489146338 13.585290592307128 0.0659020380284619 0 -1 0
415 1 1 inf 3.3307635682184284 14.379014801296826 3.5230807833742737 0 0 0
2595 1 1 inf 5.276516501482637 15.380637777715878 2.723650461337252 -1 0 0
560 1 1 inf 7.117810782110078 11.069690990998849 0.832374098249949 -1 0 0
2695 1 1 inf 9.331480517810881 14.92356985615739 2.4844986162065 1 0 0
493 1 1 inf 12.173796922685234 16.621689307964857 4.046651101023443 0 0 -1
4106 1 1 inf 14.523962713923062 12.355436953937723 5.563164796827838 -1 -1 0
4994 1 1 inf 13.143412260893303 13.39936494019533 2.289052067589367 0 0 2
2993 1 1 inf 18.025896252212192 13.61776067930549 18.599194306712903 -1 0 0
3455 1 1 inf 1.0484619082984292 12.45098290144686 19.174097389720124 1 0 -1
1089 1 1 inf 5.985109790379254 13.038539919357875 1.2938269479067175 1 0 0
2582 1 1 inf 0.42183926244085385 13.306818017363037 4.214181236683104 1 0 0
4301 1 1 inf 6.3321151371711215 17.297287518644527 19.177977190877986 0 -1 0
2634 1 1 inf 4.597657132571856 14.87760664435867 3.370162890847202 0 -1 0
29 1 1 inf 9.538752752937942 13.849469356077208 2.324355756365005 0 -1 0
886 1 1 inf 8.80727316006307 15.197532911646324 0.4242872443811684 -1 0 0
4215 1 1 inf 17.103905105320056 16.863559884574265 19.11127406916284 -1 -1 -1
2319 1 1 inf 3.0498086315422666 14.730733806943073 1.033074810794249 1 -1 1
4303 1 1 inf 18.30416235273931 13.168753039681787 1.4513584324718607 0 -1 0
270 1 1 inf 0.6889201694655182 17.86553878728063 18.59019589372872 0 0 -1
526 1 1 inf 0.812947474997205 17.250142009977818 3.31999420971595 0 0 0
4562 1 1 inf 9.18766371062106 12.341720927825335 0.4800172572151543 0 -1 1
2021 1 1 inf 7.328157031877113 15.64816517543022 1.148706311352285 -1 -1 0
4101 1 1 inf 10.0753050438383 15.217902172565143 17.627843837524686 1 0 -1
2767 1 1 inf 11.00917500082056 17.309914566572 17.853120654129324 0 0 -1