LAMMPS data file via write_data, version 2 Aug 2023, timestep = 20000, units = lj

5832 atoms
1 atom types
5832 ellipsoids

0 19.81156349336776 xlo xhi
0 19.81156349336776 ylo yhi
0 19.81156349336776 zlo zhi

Atoms # ellipsoid/kk

330 1 1 inf 5.777752053977522 0.24555919661637599 0.5948825868384934 0 0 0
332 1 1 inf 7.770764606953384 19.785067144757743 0.4875969450962881 0 -1 0
351 1 1 inf 9.17678443817173 0.6202126418290073 0.34760573466045935 0 0 0
337 1 1 inf 13.102766455490487 0.23169407621291901 0.48086269043617297 0 0 0
358 1 1 inf 16.757878439427234 0.34005766129971066 0.5984951610266429 0 0 0
18 1 1 inf 18.817583780971365 0.6176158554140533 0.4124017384901502 0 0 0
20 1 1 inf 0.823620681446591 1.2060685407249976 0.44923736869731834 0 0 0
21 1 1 inf 1.9342319469098026 1.1832512791378096 0.47106157346908634 0 0 0
22 1 1 inf 3.1461840033769772 1.1311002101604717 0.08386200813379617 0 0 0
23 1 1 inf 4.384566726010164 1.2941386667020307 0.1379606024304017 0 0 0
25 1 1 inf 6.623614711628614 1.1384461850178302 0.19204139351401464 0 0 0
350 1 1 inf 7.606638082463119 1.1176335003361602 0.749287969290641 0 0 0
29 1 1 inf 11.177667557423751 1.0666063090190916 0.3296789164080303 0 0 0
354 1 1 inf 12.233808599676863 1.2858541314403162 0.7141265689537943 0 0 0
31 1 1 inf 13.154576279438158 1.2907903357002122 0.07168865923013062 0 0 0
369 1 1 inf 9.382180901498707 1.7372263177898175 0.44305401787560134 0 0 0
371 1 1 inf 10.41681421537914 1.8497929170437926 0.741887561986068 0 0 0
51 1 1 inf 15.175447055128501 1.7280891464468875 0.4690688701017219 0 0 0
19 1 1 inf 19.588391378194956 1.5435866198369206 0.26562358918503 -1 0 0
39 1 1 inf 1.4749211504136455 2.3826979747652097 0.45531221894954527 0 0 0
42 1 1 inf 5.128522793504823 2.3436693540983433 0.14357532670803802 0 0 0
48 1 1 inf 11.581997036433208 2.2263497790902775 0.4952690899712315 0 0 0
68 1 1 inf 14.515780309572293 2.7922308424390136 0.1832001602173032 0 0 0
52 1 1 inf 16.233722063125736 2.274744732803929 0.16227546175037902 0 0 0
54 1 1 inf 18.220971789202874 2.9231025991005226 19.766464512036695 0 0 -1
378 1 1 inf 18.964631798713057 2.414485565339221 0.5596164030155537 0 0 0
55 1 1 inf 0.1327002094272885 3.1417318279905793 0.20909779698201225 0 0 0
56 1 1 inf 1.3561837242012607 3.488119789356934 0.2650687736359618 0 0 0
57 1 1 inf 2.3530479569995983 3.130846749286925 0.36351701566147143 0 0 0
58 1 1 inf 3.474875654847409 3.564595403950784 0.09428942348222272 0 0 0
383 1 1 inf 4.47496853023126 3.2196383819130547 0.7148014871299524 0 0 0
60 1 1 inf 5.68291229423868 3.2990808658931194 0.36712257665387743 0 0 0
61 1 1 inf 6.857224462735556 2.97918115155912 0.2805575124482645 0 0 0
62 1 1 inf 7.93956099792084 2.920452658050546 0.4211762847578581 0 0 0
64 1 1 inf 10.127199087120855 3.1149242416871132 0.4300274665240015 0 0 0
65 1 1 inf 11.183223732458275 3.2039830750685185 0.08425170122840042 0 0 0
390 1 1 inf 12.213273186659377 3.4682108523224198 0.5491508130699339 0 0 0
67 1 1 inf 13.27431251790808 3.2726009114067254 0.3122490701769473 0 0 0
77 1 1 inf 4.2884094163203414 4.347119724718989 0.07762549310889906 0 0 0
402 1 1 inf 5.333097367411111 4.4051959896196795 0.6453433635136685 0 0 0
80 1 1 inf 7.323286898055012 3.9878772750866087 19.797310929873415 0 0 -1
405 1 1 inf 8.616272521744452 3.818675611674539 0.5795371840820523 0 0 0
83 1 1 inf 10.692005523833089 4.405985368991176 0.39325108778433576 0 0 0
85 1 1 inf 13.115515101026661 4.359575435650448 0.08924250354787451 0 0 0
86 1 1 inf 14.44149731199404 4.145955418596788 0.2704384538798596 0 0 0
70 1 1 inf 16.322968344552127 3.621431197575902 0.5079175408758022 0 0 0
89 1 1 inf 18.025810778531792 4.1196326019728 0.03502851682042383 0 0 0
72 1 1 inf 19.24346467488387 4.074535209584841 0.20429553794417415 0 0 0
74 1 1 inf 0.9439374681872609 4.83455294504777 0.46317927555489546 0 0 0
75 1 1 inf 1.9772418180340305 4.522970456203252 0.25208775150234786 0 0 0
97 1 1 inf 7.2023390266902725 5.130679993487317 0.19085060244425234 0 0 0
406 1 1 inf 9.337754743265222 5.012606737254341 0.6902418536685049 0 0 0
412 1 1 inf 16.344320059585893 4.889124723241659 0.5756796426435367 0 0 0
91 1 1 inf 0.30833894794706423 5.796086719891623 0.37313948523492163 0 0 0
93 1 1 inf 2.5187881251205098 5.616138225099029 0.502270583041847 0 0 0
94 1 1 inf 3.7010240771676015 5.672957228754431 0.2293196545676418 0 0 0
95 1 1 inf 4.951788062819172 5.500792938882605 0.12973037569925605 0 0 0
96 1 1 inf 6.025591635969648 5.22190126575926 0.2183472643278958 0 0 0
99 1 1 inf 8.928008963134326 5.839731200970637 0.13061532541882356 0 0 0
100 1 1 inf 10.388245546928157 5.421441532141725 0.11366422555090405 0 0 0
101 1 1 inf 11.494428589882162 5.184592948755735 0.3139121822722839 0 0 0
102 1 1 inf 12.532646150942446 5.078761625022915 0.6531488473394099 0 0 0
103 1 1 inf 13.493024582057968 5.630530076685809 0.055428285401390096 0 0 0
105 1 1 inf 15.56216035421271 5.804394649698409 0.25902784454529887 0 0 0
107 1 1 inf 17.740839840045226 5.5770156871081955 0.0883982362819932 0 0 0
113 1 1 inf 4.408311620931553 6.5509695072716765 0.25732067776631096 0 0 0
115 1 1 inf 6.596709721777076 6.129875595965716 0.42928577888103253 0 0 0
120 1 1 inf 11.764426458464888 6.3702815304057445 0.30484503061858415 0 0 0
428 1 1 inf 14.206321431254914 6.260732896474925 0.7164001990852338 0 0 0
106 1 1 inf 16.604573312042913 6.202691978923134 0.0552527147701663 0 0 0
108 1 1 inf 18.865014349547604 6.06297409918663 0.6101098468013055 0 0 0
112 1 1 inf 3.1367898487151162 6.740748598826043 0.2179879037509743 0 0 0
116 1 1 inf 7.42966625126107 6.900458161471482 0.3504898473998424 0 0 0
118 1 1 inf 9.90388089474978 6.703337026293809 0.40984703297105335 0 0 0
137 1 1 inf 11.06008472797417 7.2545365416327705 0.43988127700539403 0 0 0
121 1 1 inf 13.040037684677293 6.612776884704437 0.30930268241592346 0 0 0
123 1 1 inf 15.09992670476781 6.9117415899165175 0.12071461816311851 0 0 0
126 1 1 inf 18.193740216190047 6.96448318940898 0.45790014698109244 0 0 0
128 1 1 inf 0.646112824048915 7.645363273192246 0.04700206463699015 0 0 0
130 1 1 inf 2.6726743904412245 7.751898588207408 0.12077711324236089 0 0 0
455 1 1 inf 4.41953086134721 7.686080620284371 0.6609590571698193 0 0 0
458 1 1 inf 7.767890650220545 8.062650161519121 0.7310961479827963 0 0 0
460 1 1 inf 10.076553722597367 7.801190904875437 0.6883796636106073 0 0 0
462 1 1 inf 12.152870895907224 7.484393572821751 0.6020628008335757 0 0 0
140 1 1 inf 14.047682581556632 7.453236998253135 0.35160561913021193 0 0 0
124 1 1 inf 16.500416546618624 7.332281429421617 0.03621069816576039 0 0 0
143 1 1 inf 17.386796302679176 7.898266181628561 0.4550994794085892 0 0 0
127 1 1 inf 18.999202375919964 7.6643964512703535 0.00524635921324192 -1 0 0
453 1 1 inf 1.6943529328522844 8.175537182891196 0.48178823092367484 0 0 0
149 1 1 inf 3.586217117349134 8.333777766818706 0.21620755068606098 0 0 0
151 1 1 inf 6.055614752787924 8.394336934040108 0.03444678587500382 0 0 0
158 1 1 inf 14.249282874118546 8.500730335417552 0.6042349607882513 0 0 0
144 1 1 inf 18.229618566555093 8.65828576601343 0.2465317630134996 0 0 0
145 1 1 inf 19.803989353970575 8.754756177262552 0.12690294109848085 -1 0 0
147 1 1 inf 1.881047890762791 9.41371201401405 0.25622107613299067 0 0 0
167 1 1 inf 3.938878497644324 9.360456223299607 0.48371388191891135 0 0 0
474 1 1 inf 4.926771050765002 8.942683133059129 0.5394102095322579 0 0 0
152 1 1 inf 7.247981929047214 9.065018127758831 0.3371812553037818 0 0 0
153 1 1 inf 8.485902337940335 9.215164272218095 0.29293239947924593 0 0 0
478 1 1 inf 10.44121064326209 9.013694180768727 0.646467769320489 0 0 0
173 1 1 inf 11.390944902584295 9.275325482838005 0.12576524490729718 0 0 0
159 1 1 inf 15.356758743379546 8.844595575959811 0.5724649007746301 0 0 0
161 1 1 inf 17.206517577129677 9.115607253088417 0.07833590409639575 0 0 0
164 1 1 inf 0.7730440746812817 9.759579528047038 0.3592834370226718 0 0 0
169 1 1 inf 6.268617975052758 9.62958431871719 0.12071530586683414 0 0 0
494 1 1 inf 7.597815215485311 10.058154553488404 0.6962464718163968 0 0 0
172 1 1 inf 9.809730452635716 9.903712344053789 0.32421851518811007 0 0 0
191 1 1 inf 10.895025885586403 10.256515998587945 0.6112407726264001 0 0 0
175 1 1 inf 13.07106127612501 10.057748169819783 0.4258618883057765 0 0 0
176 1 1 inf 14.128091832974334 9.68309047944288 0.10443606328368488 0 0 0
160 1 1 inf 16.256503484787522 9.571564035975737 0.43171284756448836 0 0 0
486 1 1 inf 18.13890247434181 9.798647045892478 0.26271394709633733 0 0 0
185 1 1 inf 4.320335127090087 10.998191571697731 0.12284139502074999 0 0 0
492 1 1 inf 5.075276327493953 10.326778822472248 0.4989293314955276 0 0 0
192 1 1 inf 12.036515319250848 10.477650966081917 0.08075021399559344 0 0 0
194 1 1 inf 14.350630123224915 10.734989253272186 0.24600453970717703 0 0 0
178 1 1 inf 16.43872926772506 10.69604834786786 0.2514372025142104 0 0 0
200 1 1 inf 0.7812927108511851 11.852222605831692 0.023406960363463014 0 0 0
507 1 1 inf 1.8542840615638485 11.474668422124441 0.4230566025988072 0 0 0
511 1 1 inf 6.764022956229836 10.967693957910491 0.6774946939159355 0 0 0
513 1 1 inf 8.863139026982711 11.01601992678542 0.5745119242807547 0 0 0
195 1 1 inf 15.52736767283166 11.122822236349082 0.705000190831076 0 0 0
197 1 1 inf 17.53154728162844 11.056252924720265 0.3481768259650609 0 0 0
198 1 1 inf 18.56072608587035 11.457501056532784 0.5099075959556532 0 0 0
204 1 1 inf 5.595334578492714 11.878955449309208 0.3236452352520704 0 0 0
529 1 1 inf 6.68907520168658 12.161998879744988 0.6705843633102845 0 0 0
530 1 1 inf 7.7441558751412805 11.842076148860404 0.5806535625499896 0 0 0
207 1 1 inf 8.716576739282411 12.337503525711831 19.793958471077055 0 0 -1
208 1 1 inf 9.851409686131621 12.215455039102238 0.08837284595096441 0 0 0
210 1 1 inf 11.967525373927346 11.67652331230845 0.07450780278903762 0 0 0
211 1 1 inf 12.761160430726921 12.507526855996291 0.03975227206861458 0 0 0
212 1 1 inf 13.95723746712073 11.948366781890494 0.1863267486635524 0 0 0
214 1 1 inf 15.90420013551821 12.558452952104624 19.80684736705964 0 0 -1
215 1 1 inf 17.339023106987558 12.260663551928182 0.15344245908413406 0 0 0
201 1 1 inf 1.9012826414465096 12.7872670729858 0.2340697054407942 0 0 0
544 1 1 inf 3.5855188928453963 12.762758973692817 0.5039326676584224 0 0 0
545 1 1 inf 4.63464334559348 13.03721932911174 0.6280670120591944 0 0 0
227 1 1 inf 10.57406796352516 13.034913839070267 0.2451087344159375 0 0 0
228 1 1 inf 11.714682793556625 13.189801604977458 0.13040580071714802 0 0 0
230 1 1 inf 14.400342069486026 13.090751191475213 0.1783037046156082 0 0 0
233 1 1 inf 17.70779641027903 13.199031639132013 0.726325291247677 0 0 0
216 1 1 inf 18.412651638097945 12.524348733799844 0.20638927492158687 0 0 0
199 1 1 inf 19.64275277968841 12.460592393946362 0.2129312002169743 -1 0 0
542 1 1 inf 0.9194361752332599 13.317610942978318 0.7793230604498622 0 0 0
220 1 1 inf 3.1710680614641604 13.860159653642638 0.13522768135319657 0 0 0
221 1 1 inf 4.292730516781302 13.946224250590204 0.04068919753449054 0 0 0
222 1 1 inf 5.4940736947549675 13.431219928259004 0.10234871380977537 0 0 0
548 1 1 inf 7.414220797134509 13.602143168139085 0.4953567506476796 0 0 0
553 1 1 inf 13.362668641173036 13.27785348659802 0.5379084842150861 0 0 0
217 1 1 inf 19.554172927629292 13.631290174477533 0.4934176553939998 -1 0 0
236 1 1 inf 1.0522852737989175 14.49453309809404 0.22630773712550575 0 0 0
244 1 1 inf 9.943107080528478 13.89569448760303 0.07764858860990494 0 0 0
569 1 1 inf 10.974254399569848 14.22994618618789 0.4206062982353529 0 0 0
247 1 1 inf 12.904563095928964 14.320714694844453 0.2647616040465945 0 0 0
250 1 1 inf 16.122364805229196 14.541431556314455 0.32276284821658596 0 0 0
238 1 1 inf 3.556572945223235 14.888200759522714 0.39645455386328776 0 0 0
239 1 1 inf 4.813745456185147 14.99136694995911 0.16610467931341902 0 0 0
259 1 1 inf 6.73629340876691 15.315394660600573 0.42068982669928634 0 0 0
262 1 1 inf 9.91346246573128 15.05740130032939 0.09912001235301765 0 0 0
266 1 1 inf 14.07979309961116 14.886357705841032 0.2014141996627581 0 0 0
267 1 1 inf 15.300178597823589 15.125852314901884 0.7170620123744513 0 0 0
577 1 1 inf 0.32628022338833096 15.403283134719771 0.6448475964710633 0 0 0
582 1 1 inf 5.24323031730291 15.94909928013376 0.6748338350877637 0 0 0
260 1 1 inf 7.581587943740921 16.031723850699798 0.4087286522216653 0 0 0
264 1 1 inf 11.765827076803282 15.54819033272733 0.2569644711854997 0 0 0
589 1 1 inf 12.876748106195295 15.389274748382364 0.6258898562468477 0 0 0
284 1 1 inf 13.768354256884514 16.13359781233914 0.4308745715737727 0 0 0
268 1 1 inf 16.4144890699026 15.794746217814854 0.22389151070003604 0 0 0
287 1 1 inf 18.02071974736458 15.842431556204936 0.14734367623978753 0 0 0
271 1 1 inf 0.21942123974836467 16.511500321956802 0.3254852974297544 0 0 0
276 1 1 inf 6.1912564099954635 16.439461755524036 0.13899918721019708 0 0 0
603 1 1 inf 9.152617834607451 16.521054636940164 0.5231397197264314 0 0 0
280 1 1 inf 10.399975690521975 16.33003296269369 0.29082725646015095 0 0 0
606 1 1 inf 12.134779726345213 16.87787236659262 0.32681857070719345 0 0 0
285 1 1 inf 14.90656638116901 16.23229242790415 0.19350728790496627 0 0 0
288 1 1 inf 18.770340392404094 16.666193325013936 0.3979645588341538 0 0 0
291 1 1 inf 1.6881515587515787 17.262189614151367 0.3521076923965386 0 0 0
292 1 1 inf 2.7917965297604925 17.540110094092988 0.08273359034978722 0 0 0
275 1 1 inf 4.343576513755538 16.999688431414462 0.16302850016234585 0 0 0
295 1 1 inf 6.156134378799767 17.573381726843053 0.679405857480646 0 0 0
298 1 1 inf 9.967510616454922 17.412704597370176 0.33470394215066984 0 0 0
623 1 1 inf 11.051212992017046 17.424370748886876 0.6281874292187372 0 0 0
628 1 1 inf 15.960812451155514 17.239496943038034 0.7594864693075598 0 0 0
305 1 1 inf 17.616455029875556 17.030290626037807 0.10690378728123019 0 0 0
310 1 1 inf 3.4808963732993297 18.26914929145037 0.5740414137649179 0 0 0
293 1 1 inf 4.5773684603605265 18.167036728953768 0.10916866265911963 0 0 0
620 1 1 inf 7.46733062806935 17.968579188734598 0.5995526403879903 0 0 0
300 1 1 inf 12.570832228461132 17.945147208124663 0.05243102313363056 0 0 0
626 1 1 inf 14.263358103103755 18.227878453280322 0.3732405421913805 0 0 0
304 1 1 inf 16.56818664792495 17.930175604249833 0.036662780052418714 0 0 0
306 1 1 inf 18.560665534399266 17.778120017881463 0.39428375937633175 0 0 0
308 1 1 inf 1.3559088810222468 18.36549089743544 0.29909241977113576 0 0 0
309 1 1 inf 2.416404558739947 18.5756722634738 0.6371762112890811 0 0 0
312 1 1 inf 5.847923241435986 18.577001293305127 0.19250049757554163 0 0 0
314 1 1 inf 8.648525389092422 18.60963082344036 0.1816256594454558 0 0 0
316 1 1 inf 10.519387276744517 18.38074624019029 0.3561250165907753 0 0 0
317 1 1 inf 11.598985415115507 18.569433129584628 0.1857210412173649 0 0 0
322 1 1 inf 16.81528391286626 19.04968331543643 0.22009909866660343 0 0 0
307 1 1 inf 19.60032090834166 18.310208009495735 0.227036575645896 -1 0 0
3 1 1 inf 2.081619985630262 19.583307586712586 0.2951087372422301 0 -1 0
4 1 1 inf 3.3442861766340557 19.45801753331679 0.2623263270394854 0 -1 0
311 1 1 inf 4.853642514389942 19.216022698247244 0.27740607925335375 0 0 0
7 1 1 inf 6.742602538781189 19.524808363023396 0.09661765147714751 0 -1 0
10 1 1 inf 9.786107208656269 19.266253778196603 0.0768628673988179 0 -1 0
335 1 1 inf 10.59364776708435 0.038181319538615574 0.6973340396034511 0 0 0
12 1 1 inf 11.713619072209674 19.75506150444929 0.4396379472197793 0 -1 0
318 1 1 inf 12.581564700538948 19.056822521401237 0.10013031353473249 0 0 0
644 1 1 inf 13.825363778495458 19.244007423504634 0.2677849832934911 0 0 0
15 1 1 inf 15.863881283299174 19.741017360607586 0.18802744172939323 0 -1 0
17 1 1 inf 17.789654449358355 19.66082096968688 0.49453216180881676 0 -1 0
325 1 1 inf 19.55125306913705 19.529205279318177 0.5199791173607137 -1 -1 0
344 1 1 inf 1.0083525228178114 0.5122732688212903 1.3820477312394592 0 0 0
327 1 1 inf 2.1017022983760962 0.6515190853341468 1.467867872619303 0 0 0
346 1 1 inf 3.1346644765735974 0.5855822046696753 1.0304694967555161 0 0 0
5 1 1 inf 4.179030127045367 0.24277857265702674 0.7749402066614325 0 0 0
331 1 1 inf 6.789566090583337 0.2798876470948625 1.084057114905794 0 0 0
334 1 1 inf 9.73567681688136 0.24177630628205 1.4000801979481678 0 0 0
336 1 1 inf 12.350747229368782 0.1512802830020641 1.3480989692793135 0 0 0
338 1 1 inf 13.967179759898015 0.22830279425050123 1.3658340065086432 0 0 0
348 1 1 inf 5.30218818690718 1.233465002713877 0.878983490607877 0 0 0
349 1 1 inf 6.469527075451108 1.2643066710525634 1.432778968895649 0 0 0
353 1 1 inf 10.625037282666177 0.8850182881356032 1.3712944458026113 0 0 0
355 1 1 inf 13.163025892116982 1.054284204654883 1.2732114441509887 0 0 0
356 1 1 inf 14.489009344722863 1.1049765464931411 0.8811847927283653 0 0 0
357 1 1 inf 15.602497283332877 0.8083022838094319 1.0081915737282388 0 0 0
359 1 1 inf 17.79290309679905 1.0477680250965058 0.9210076783059838 0 0 0
343 1 1 inf 19.800678973557 0.7368718375250557 1.222851327044171 -1 0 0
362 1 1 inf 1.4082156050154064 1.5661193987613562 1.3978616946049787 0 0 0
345 1 1 inf 2.416186447134186 1.9582733257691491 1.1038285098492133 0 0 0
364 1 1 inf 3.823662278858992 1.5107092158425526 1.0590031063027272 0 0 0
365 1 1 inf 4.863370931648574 2.172814200596508 1.1985821897757492 0 0 0
366 1 1 inf 5.967639430549693 2.136202479118311 0.911026195518209 0 0 0
367 1 1 inf 7.170040837180202 2.1468432699134534 1.03855887951551 0 0 0
368 1 1 inf 8.37989651281369 1.9606135909636704 0.8361179763281646 0 0 0
373 1 1 inf 13.342973964803166 2.139408445531015 0.8414710968399262 0 0 0
374 1 1 inf 14.515715441915086 2.2381938475826204 1.2618665558337028 0 0 0
375 1 1 inf 15.584604216678343 1.9341255648426365 1.4682010915877497 0 0 0
376 1 1 inf 16.686195739628545 1.6210260730629191 0.9918059653517016 0 0 0
377 1 1 inf 17.869411338692682 2.1692658338367794 0.8191723711626546 0 0 0
360 1 1 inf 18.7871732677651 1.4539448854254153 1.0926429191175848 0 0 0
361 1 1 inf 0.5102024296911097 2.133143399149578 0.971362127702425 0 0 0
363 1 1 inf 3.4374151077054362 2.6464817647719343 1.0206037072355572 0 0 0
387 1 1 inf 9.12200667523709 2.839317614187162 0.7653555148671876 0 0 0
394 1 1 inf 16.42898469363521 2.734192815505612 1.161393944340465 0 0 0
705 1 1 inf 2.4608224401160017 3.0448578656432486 1.520747762615973 0 0 0
384 1 1 inf 5.31725939192592 3.4829972190516614 1.3746574306333024 0 0 0
385 1 1 inf 6.434824938404072 3.305858099527238 1.282036052565254 0 0 0
386 1 1 inf 7.816508988842174 3.56066614912241 1.2941010454960886 0 0 0
389 1 1 inf 11.225140028244494 3.010320106711079 1.1875953651587106 0 0 0
392 1 1 inf 14.240912887734957 3.4313786650492295 1.1086082677516638 0 0 0
393 1 1 inf 15.328130949963635 3.0197188286255545 1.006493660904862 0 0 0
395 1 1 inf 17.40012406776632 3.1891857791128744 0.8238204093916598 0 0 0
396 1 1 inf 18.556957683136044 3.5038827291583976 0.86204869484289 0 0 0
703 1 1 inf 19.562290594514103 3.0915480976194583 1.2849765901236407 -1 0 0
379 1 1 inf 0.5503795689008674 3.833787730871981 1.0405655331858275 0 0 0
398 1 1 inf 1.7959651492152868 3.9341326424362246 1.2446849965740865 0 0 0
381 1 1 inf 2.8244560731482244 4.070686281555309 0.8280428029235901 0 0 0
382 1 1 inf 3.773052882767774 3.6832494151677677 1.3376612647273103 0 0 0
403 1 1 inf 6.574051622563317 4.342697334386706 0.7680177264547063 0 0 0
388 1 1 inf 9.84550461972088 4.046814202956503 1.02124380636847 0 0 0
409 1 1 inf 13.032430206816878 4.280726670810985 1.2492074262692465 0 0 0
411 1 1 inf 15.287843807147693 4.271043155261373 1.1152203047112277 0 0 0
413 1 1 inf 17.23566294433013 4.36167818056879 0.789073166879859 0 0 0
399 1 1 inf 2.195750962401694 4.989075267175019 1.3426416500094187 0 0 0
400 1 1 inf 3.6979604072964274 4.808318334899813 1.0020461680499264 0 0 0
404 1 1 inf 7.939460482453002 4.767690449441163 1.0160024281250335 0 0 0
425 1 1 inf 10.535809812695122 5.044826931958627 1.394253885482707 0 0 0
408 1 1 inf 11.748329579877113 4.478040922645713 1.1517293363172871 0 0 0
410 1 1 inf 14.115845671524204 4.4764405266171785 1.4216196947260882 0 0 0
414 1 1 inf 18.22459599561987 4.95721954524712 0.9022730070527455 0 0 0
73 1 1 inf 19.470218439773795 5.051565415409352 0.8865746273010658 -1 0 0
416 1 1 inf 1.4837752617719089 5.737275617005107 0.8925082667359605 0 0 0
418 1 1 inf 3.2978013233620516 5.707188568884998 1.2956509176435547 0 0 0
419 1 1 inf 4.430402709584981 5.7325582181250745 1.1913281045057633 0 0 0
420 1 1 inf 5.558549273256623 5.752857672816305 1.1565171279321778 0 0 0
421 1 1 inf 6.833343834911288 5.335852319639979 1.269499904252175 0 0 0
426 1 1 inf 11.637679319827058 5.628061828135708 1.2825548701420688 0 0 0
427 1 1 inf 13.595552420501637 5.553745939019987 1.2566875264666588 0 0 0
429 1 1 inf 14.672830669943231 5.217476873453946 0.7693322097673342 0 0 0
430 1 1 inf 16.210925317923046 5.792604174857341 1.21214742359664 0 0 0
431 1 1 inf 17.362018736191168 5.840804170114878 1.1422563536291035 0 0 0
434 1 1 inf 1.1447712754757051 6.670537850868503 1.4884262680826863 0 0 0
439 1 1 inf 6.978287899347973 6.604712714583247 1.4561143465973343 0 0 0
422 1 1 inf 7.829206038373435 5.91076331191724 0.8628740888497647 0 0 0
424 1 1 inf 9.72659833522238 5.93277893241373 1.26819592563166 0 0 0
443 1 1 inf 10.844390236998537 6.282814476750555 0.9317816753271263 0 0 0
444 1 1 inf 12.640462120549065 6.138594763381377 1.2524322154536334 0 0 0
753 1 1 inf 15.085400912537935 6.183162543992218 1.3919325432920613 0 0 0
433 1 1 inf 0.1208911653645138 6.924271466593605 0.9115040904792053 0 0 0
435 1 1 inf 1.9057124332120454 6.893211584535129 0.7538644046913945 0 0 0
436 1 1 inf 3.5603811387685815 6.770111533903441 1.2595817921932766 0 0 0
437 1 1 inf 4.756478798557222 6.826475506592333 1.299310599302161 0 0 0
438 1 1 inf 5.846011557081177 6.8026927645256094 0.8795747932331063 0 0 0
440 1 1 inf 7.957776052096478 7.076555417913818 1.3076634889888674 0 0 0
441 1 1 inf 8.853758943164967 6.675692373585195 0.8200167978970274 0 0 0
445 1 1 inf 13.431473320865669 6.934533662922056 1.3674188602021016 0 0 0
446 1 1 inf 14.822350386178401 7.259919805620263 1.1111474645704469 0 0 0
447 1 1 inf 16.00879353445252 6.809124889329978 0.8904528970482978 0 0 0
448 1 1 inf 17.13171311064388 6.874333822918844 0.8439998503109621 0 0 0
452 1 1 inf 1.042779559831669 7.791819222919739 1.2777802547748387 0 0 0
454 1 1 inf 2.8926740489634084 7.739790934798175 1.1933717674355004 0 0 0
456 1 1 inf 5.493784736375704 7.99094381438251 0.8726340760328378 0 0 0
457 1 1 inf 6.628864138405409 7.717614204406984 0.8574210116744829 0 0 0
459 1 1 inf 8.916376557677959 7.823449300028187 0.7827151470551328 0 0 0
463 1 1 inf 13.05698979872962 8.190143532976204 0.8562866363398345 0 0 0
465 1 1 inf 15.733488156664407 7.820015783648966 0.8340043802279512 0 0 0
468 1 1 inf 18.611576289589678 7.7253505995737015 1.178145935417104 0 0 0
451 1 1 inf 19.69603508767284 8.069333758539274 1.075184997685284 -1 0 0
472 1 1 inf 2.617705371636004 8.662993329444735 0.7504987209066944 0 0 0
473 1 1 inf 4.064420157964323 8.59858425768001 1.2017977653336624 0 0 0
479 1 1 inf 11.494077987070089 8.387037890919354 0.8818756614824416 0 0 0
484 1 1 inf 16.659832717474348 8.644018498349423 0.9931252039677628 0 0 0
469 1 1 inf 0.049540905147272545 9.245559711902754 1.135735782926339 0 0 0
470 1 1 inf 1.1267409335014973 8.89056742443917 1.1150041551334333 0 0 0
475 1 1 inf 6.105367089480344 8.812407917682945 1.2756500177188594 0 0 0
476 1 1 inf 8.331952188499688 8.904424139022643 1.3864040508336162 0 0 0
477 1 1 inf 9.377601502675459 8.781615067663607 0.9027281218821136 0 0 0
497 1 1 inf 11.242742490676564 9.325669003084869 1.4678401898696078 0 0 0
480 1 1 inf 12.466939441897983 9.085922484311327 1.0540987190639461 0 0 0
481 1 1 inf 13.575826877444781 9.256527164169508 1.0024964184838747 0 0 0
485 1 1 inf 17.68483253553411 9.110619284491865 1.0695564942496365 0 0 0
810 1 1 inf 18.746704021487915 9.063395599384057 1.3755298110129963 0 0 0
490 1 1 inf 2.7779622215971504 9.789502017181922 0.76819045693515 0 0 0
491 1 1 inf 4.569945462406049 9.626275743448899 1.3703129294976282 0 0 0
493 1 1 inf 5.776858726682025 10.039991618650186 1.3780264120847403 0 0 0
495 1 1 inf 8.883555715632912 9.936538359710104 1.047693039136888 0 0 0
498 1 1 inf 12.01428107372797 10.072439158812491 1.1108108605484464 0 0 0
500 1 1 inf 14.105614026009878 10.27537320403513 1.257463104991377 0 0 0
501 1 1 inf 15.269236681990995 9.957860313203003 0.7876967585904617 0 0 0
503 1 1 inf 17.17399655765914 10.097019417817483 0.8025292522814855 0 0 0
487 1 1 inf 19.228880073533848 10.253480826957993 0.8289827463048041 -1 0 0
489 1 1 inf 1.6318959379475946 10.393354879832108 0.7971772579934787 0 0 0
508 1 1 inf 2.606239211457172 10.95418591892518 0.9353534970666946 0 0 0
509 1 1 inf 3.664856861112173 10.604904807795894 0.9317242748310929 0 0 0
512 1 1 inf 7.837898603126499 11.02257942492309 1.2966712913877956 0 0 0
496 1 1 inf 9.921574304831223 10.571418786328671 1.1884686283426062 0 0 0
502 1 1 inf 16.256587035159757 10.501433535572154 1.3794558731720872 0 0 0
506 1 1 inf 0.7899975979923902 11.14041889835758 0.9857885882096368 0 0 0
526 1 1 inf 3.6966728444017662 11.67619696594256 0.8473353595531318 0 0 0
510 1 1 inf 5.681063788776908 11.144084451950691 1.2508868603317223 0 0 0
514 1 1 inf 10.387737084826677 11.469227265885982 0.7239666879410348 0 0 0
516 1 1 inf 11.829405616723196 11.379338603540836 1.1078183985513985 0 0 0
517 1 1 inf 12.92122820139043 11.168012400506832 0.7624421905716481 0 0 0
518 1 1 inf 14.206184518896256 11.3467789616843 1.183757157975411 0 0 0
520 1 1 inf 16.578839428855634 11.63942866321723 0.8271141738921275 0 0 0
505 1 1 inf 19.55011605850807 11.397816145110498 1.1422624090759597 -1 0 0
523 1 1 inf 0.6051999287076788 12.246486765144677 1.0429306212499483 0 0 0
524 1 1 inf 1.6892565095576697 12.174839357464771 1.3687917019245295 0 0 0
525 1 1 inf 2.6265200222555647 12.100679286818995 0.7543664338935759 0 0 0
527 1 1 inf 4.532420971438922 12.188750629871699 1.4632932179828952 0 0 0
528 1 1 inf 5.612907280082233 12.603528229635911 1.2602415310610808 0 0 0
531 1 1 inf 9.132886177439755 12.063468120492027 0.9923435235182911 0 0 0
533 1 1 inf 11.229860432719835 12.242652989696388 0.6417081010122279 0 0 0
534 1 1 inf 12.239332821328993 12.414856049445326 1.0907055427496242 0 0 0
535 1 1 inf 13.418492484231635 12.294115757349205 1.111311302443268 0 0 0
536 1 1 inf 14.861067558821816 12.19939586272562 0.8692152384214602 0 0 0
537 1 1 inf 15.869102845875686 12.28624392944045 1.4111413726274469 0 0 0
539 1 1 inf 17.92417743269816 12.135146608316633 1.1615242675932984 0 0 0
540 1 1 inf 19.10517318434827 12.364301576216473 1.423365506323384 0 0 0
543 1 1 inf 2.2620431519867794 13.209469206619778 1.1563949475899078 0 0 0
549 1 1 inf 8.173359018442472 12.791817814471615 0.99394995579201 0 0 0
550 1 1 inf 9.242852890541478 13.159455538283137 0.725278674655958 0 0 0
532 1 1 inf 10.361177553532585 12.66882097822465 1.3638765747214674 0 0 0
554 1 1 inf 14.355092884274017 13.06169803368353 1.357990907939601 0 0 0
556 1 1 inf 16.60016573372747 12.945994245656435 0.841357062585959 0 0 0
562 1 1 inf 3.2645147910236045 13.770053815572604 1.1771086904438324 0 0 0
546 1 1 inf 5.335844193792696 13.643398026400245 1.269386454730199 0 0 0
547 1 1 inf 6.430863725358377 13.292281240041538 0.9676558765379129 0 0 0
567 1 1 inf 8.353827652436262 13.915203560751408 0.9922991932318367 0 0 0
551 1 1 inf 11.243736097922318 13.331914760356328 1.1530395877445367 0 0 0
552 1 1 inf 12.39824266095566 13.613961231219998 0.9251953473907504 0 0 0
555 1 1 inf 15.481305261903808 13.208328915568135 0.9297207460919088 0 0 0
558 1 1 inf 18.6568848979439 13.356226065924007 1.167762076564169 0 0 0
559 1 1 inf 0.4719180871553459 14.34154634609632 1.2207839743632134 0 0 0
560 1 1 inf 1.5053828458429952 13.968348823970405 1.4004631131056444 0 0 0
561 1 1 inf 2.4189793954022054 14.377014707245781 0.7120580744393252 0 0 0
563 1 1 inf 4.338782303327465 14.09135422554165 1.1514296536508093 0 0 0
564 1 1 inf 5.756863763035687 14.523270537032504 0.6947546219258425 0 0 0
565 1 1 inf 6.814278587656444 14.373203123259986 1.0357794713909239 0 0 0
568 1 1 inf 9.653342648734318 14.32007175087638 1.1218938996620875 0 0 0
570 1 1 inf 12.006496866302244 14.639795159257138 0.9715540961720606 0 0 0
571 1 1 inf 13.030878971946528 14.471614069014265 1.424309428586057 0 0 0
572 1 1 inf 14.356841486432195 14.072046082851005 0.9266989417288821 0 0 0
573 1 1 inf 15.87808725531537 14.249919173263315 1.3517175670157335 0 0 0
574 1 1 inf 17.005780517431525 14.03808519704782 1.0197226840981275 0 0 0
575 1 1 inf 18.089402764546445 14.291853621128848 0.8199173524694447 0 0 0
578 1 1 inf 1.1679716182238624 15.168833625484432 1.3112210623793965 0 0 0
581 1 1 inf 4.323113921515642 15.233846865777371 1.1448967556054888 0 0 0
585 1 1 inf 8.74262009004816 14.96886320859871 0.822105624079675 0 0 0
587 1 1 inf 10.823050598318728 15.260648935955578 0.8787127983962216 0 0 0
590 1 1 inf 13.900561352399626 15.30197149783721 1.2075438322997587 0 0 0
592 1 1 inf 16.343566687516184 15.267873660774132 1.4632533901170903 0 0 0
593 1 1 inf 17.27103741878699 15.164717898922632 0.7416913121087313 0 0 0
594 1 1 inf 18.296984101996845 15.372844796897352 1.119092528309854 0 0 0
576 1 1 inf 19.223804074606196 14.762025521728235 0.8895057151017663 0 0 0
579 1 1 inf 2.27895441850314 15.467244148702822 0.8463721406892262 0 0 0
256 1 1 inf 3.5734766217138483 16.05177344430863 0.8078090696430439 0 0 0
583 1 1 inf 6.042144055994519 15.45942963781823 1.3200508925904824 0 0 0
584 1 1 inf 7.108895418401443 15.81701367349851 1.4155988164172346 0 0 0
927 1 1 inf 8.612398847066034 15.937735388856664 1.5021699514100204 0 0 0
586 1 1 inf 9.763687571765564 15.533091406289584 1.1125156958373976 0 0 0
588 1 1 inf 12.066833279124417 15.662227619093503 1.3808254012904702 0 0 0