ITEM: TIMESTEP
0
ITEM: NUMBER OF ATOMS
5832
ITEM: BOX BOUNDS pp pp pp
0.0000000000000000e+00 1.9261242285218657e+01
0.0000000000000000e+00 1.9261242285218657e+01
0.0000000000000000e+00 1.9261242285218657e+01
ITEM: ATOMS id type xs ys zs
1 1 0 0 0
2 1 0.0571429 0 0
3 1 0.114286 0 0
4 1 0.171429 0 0
5 1 0.228571 0 0
6 1 0.285714 0 0
7 1 0.342857 0 0
8 1 0.4 0 0
9 1 0.457143 0 0
10 1 0.514286 0 0
11 1 0.571429 0 0
12 1 0.628571 0 0
13 1 0.685714 0 0
14 1 0.742857 0 0
15 1 0.8 0 0
16 1 0.857143 0 0
17 1 0.914286 0 0
18 1 0.971429 0 0
19 1 0 0.0571429 0
20 1 0.0571429 0.0571429 0
21 1 0.114286 0.0571429 0
22 1 0.171429 0.0571429 0
23 1 0.228571 0.0571429 0
24 1 0.285714 0.0571429 0
25 1 0.342857 0.0571429 0
26 1 0.4 0.0571429 0
27 1 0.457143 0.0571429 0
28 1 0.514286 0.0571429 0
29 1 0.571429 0.0571429 0
30 1 0.628571 0.0571429 0
31 1 0.685714 0.0571429 0
32 1 0.742857 0.0571429 0
33 1 0.8 0.0571429 0
34 1 0.857143 0.0571429 0
35 1 0.914286 0.0571429 0
36 1 0.971429 0.0571429 0
37 1 0 0.114286 0
38 1 0.0571429 0.114286 0
39 1 0.114286 0.114286 0
40 1 0.171429 0.114286 0
41 1 0.228571 0.114286 0
42 1 0.285714 0.114286 0
43 1 0.342857 0.114286 0
44 1 0.4 0.114286 0
45 1 0.457143 0.114286 0
46 1 0.514286 0.114286 0
47 1 0.571429 0.114286 0
48 1 0.628571 0.114286 0
49 1 0.685714 0.114286 0
50 1 0.742857 0.114286 0
51 1 0.8 0.114286 0
52 1 0.857143 0.114286 0
53 1 0.914286 0.114286 0
54 1 0.971429 0.114286 0
55 1 0 0.171429 0
56 1 0.0571429 0.171429 0
57 1 0.114286 0.171429 0
58 1 0.171429 0.171429 0
59 1 0.228571 0.171429 0
60 1 0.285714 0.171429 0
61 1 0.342857 0.171429 0
62 1 0.4 0.171429 0
63 1 0.457143 0.171429 0
64 1 0.514286 0.171429 0
65 1 0.571429 0.171429 0
66 1 0.628571 0.171429 0
67 1 0.685714 0.171429 0
68 1 0.742857 0.171429 0
69 1 0.8 0.171429 0
70 1 0.857143 0.171429 0
71 1 0.914286 0.171429 0
72 1 0.971429 0.171429 0
73 1 0 0.228571 0
74 1 0.0571429 0.228571 0
75 1 0.114286 0.228571 0
76 1 0.171429 0.228571 0
77 1 0.228571 0.228571 0
78 1 0.285714 0.228571 0
79 1 0.342857 0.228571 0
80 1 0.4 0.228571 0
81 1 0.457143 0.228571 0
82 1 0.514286 0.228571 0
83 1 0.571429 0.228571 0
84 1 0.628571 0.228571 0
85 1 0.685714 0.228571 0
86 1 0.742857 0.228571 0
87 1 0.8 0.228571 0
88 1 0.857143 0.228571 0
89 1 0.914286 0.228571 0
90 1 0.971429 0.228571 0
91 1 0 0.285714 0
92 1 0.0571429 0.285714 0
93 1 0.114286 0.285714 0
94 1 0.171429 0.285714 0
95 1 0.228571 0.285714 0
96 1 0.285714 0.285714 0
97 1 0.342857 0.285714 0
98 1 0.4 0.285714 0
99 1 0.457143 0.285714 0
100 1 0.514286 0.285714 0
101 1 0.571429 0.285714 0
102 1 0.628571 0.285714 0
103 1 0.685714 0.285714 0
104 1 0.742857 0.285714 0
105 1 0.8 0.285714 0
106 1 0.857143 0.285714 0
107 1 0.914286 0.285714 0
108 1 0.971429 0.285714 0
109 1 0 0.342857 0
110 1 0.0571429 0.342857 0
111 1 0.114286 0.342857 0
112 1 0.171429 0.342857 0
113 1 0.228571 0.342857 0
114 1 0.285714 0.342857 0
115 1 0.342857 0.342857 0
116 1 0.4 0.342857 0
117 1 0.457143 0.342857 0
118 1 0.514286 0.342857 0
119 1 0.571429 0.342857 0
120 1 0.628571 0.342857 0
121 1 0.685714 0.342857 0
122 1 0.742857 0.342857 0
123 1 0.8 0.342857 0
124 1 0.857143 0.342857 0
125 1 0.914286 0.342857 0
126 1 0.971429 0.342857 0
127 1 0 0.4 0
128 1 0.0571429 0.4 0
129 1 0.114286 0.4 0
130 1 0.171429 0.4 0
131 1 0.228571 0.4 0
132 1 0.285714 0.4 0
133 1 0.342857 0.4 0
134 1 0.4 0.4 0
135 1 0.457143 0.4 0
136 1 0.514286 0.4 0
137 1 0.571429 0.4 0
138 1 0.628571 0.4 0
139 1 0.685714 0.4 0
140 1 0.742857 0.4 0
141 1 0.8 0.4 0
142 1 0.857143 0.4 0
143 1 0.914286 0.4 0
144 1 0.971429 0.4 0
145 1 0 0.457143 0
146 1 0.0571429 0.457143 0
147 1 0.114286 0.457143 0
148 1 0.171429 0.457143 0
149 1 0.228571 0.457143 0
150 1 0.285714 0.457143 0
151 1 0.342857 0.457143 0
152 1 0.4 0.457143 0
153 1 0.457143 0.457143 0
154 1 0.514286 0.457143 0
155 1 0.571429 0.457143 0
156 1 0.628571 0.457143 0
157 1 0.685714 0.457143 0
158 1 0.742857 0.457143 0
159 1 0.8 0.457143 0
160 1 0.857143 0.457143 0
161 1 0.914286 0.457143 0
162 1 0.971429 0.457143 0
163 1 0 0.514286 0
164 1 0.0571429 0.514286 0
165 1 0.114286 0.514286 0
166 1 0.171429 0.514286 0
167 1 0.228571 0.514286 0
168 1 0.285714 0.514286 0
169 1 0.342857 0.514286 0
170 1 0.4 0.514286 0
171 1 0.457143 0.514286 0
172 1 0.514286 0.514286 0
173 1 0.571429 0.514286 0
174 1 0.628571 0.514286 0
175 1 0.685714 0.514286 0
176 1 0.742857 0.514286 0
177 1 0.8 0.514286 0
178 1 0.857143 0.514286 0
179 1 0.914286 0.514286 0
180 1 0.971429 0.514286 0
181 1 0 0.571429 0
182 1 0.0571429 0.571429 0
183 1 0.114286 0.571429 0
184 1 0.171429 0.571429 0
185 1 0.228571 0.571429 0
186 1 0.285714 0.571429 0
187 1 0.342857 0.571429 0
188 1 0.4 0.571429 0
189 1 0.457143 0.571429 0
190 1 0.514286 0.571429 0
191 1 0.571429 0.571429 0
192 1 0.628571 0.571429 0
193 1 0.685714 0.571429 0
194 1 0.742857 0.571429 0
195 1 0.8 0.571429 0
196 1 0.857143 0.571429 0
197 1 0.914286 0.571429 0
198 1 0.971429 0.571429 0
199 1 0 0.628571 0
200 1 0.0571429 0.628571 0
201 1 0.114286 0.628571 0
202 1 0.171429 0.628571 0
203 1 0.228571 0.628571 0
204 1 0.285714 0.628571 0
205 1 0.342857 0.628571 0
206 1 0.4 0.628571 0
207 1 0.457143 0.628571 0
208 1 0.514286 0.628571 0
209 1 0.571429 0.628571 0
210 1 0.628571 0.628571 0
211 1 0.685714 0.628571 0
212 1 0.742857 0.628571 0
213 1 0.8 0.628571 0
214 1 0.857143 0.628571 0
215 1 0.914286 0.628571 0
216 1 0.971429 0.628571 0
217 1 0 0.685714 0
218 1 0.0571429 0.685714 0
219 1 0.114286 0.685714 0
220 1 0.171429 0.685714 0
221 1 0.228571 0.685714 0
222 1 0.285714 0.685714 0
223 1 0.342857 0.685714 0
224 1 0.4 0.685714 0
225 1 0.457143 0.685714 0
226 1 0.514286 0.685714 0
227 1 0.571429 0.685714 0
228 1 0.628571 0.685714 0
229 1 0.685714 0.685714 0
230 1 0.742857 0.685714 0
231 1 0.8 0.685714 0
232 1 0.857143 0.685714 0
233 1 0.914286 0.685714 0
234 1 0.971429 0.685714 0
235 1 0 0.742857 0
236 1 0.0571429 0.742857 0
237 1 0.114286 0.742857 0
238 1 0.171429 0.742857 0
239 1 0.228571 0.742857 0
240 1 0.285714 0.742857 0
241 1 0.342857 0.742857 0
242 1 0.4 0.742857 0
243 1 0.457143 0.742857 0
244 1 0.514286 0.742857 0
245 1 0.571429 0.742857 0
246 1 0.628571 0.742857 0
247 1 0.685714 0.742857 0
248 1 0.742857 0.742857 0
249 1 0.8 0.742857 0
250 1 0.857143 0.742857 0
251 1 0.914286 0.742857 0
252 1 0.971429 0.742857 0
253 1 0 0.8 0
254 1 0.0571429 0.8 0
255 1 0.114286 0.8 0
256 1 0.171429 0.8 0
257 1 0.228571 0.8 0
258 1 0.285714 0.8 0
259 1 0.342857 0.8 0
260 1 0.4 0.8 0
261 1 0.457143 0.8 0
262 1 0.514286 0.8 0
263 1 0.571429 0.8 0
264 1 0.628571 0.8 0
265 1 0.685714 0.8 0
266 1 0.742857 0.8 0
267 1 0.8 0.8 0
268 1 0.857143 0.8 0
269 1 0.914286 0.8 0
270 1 0.971429 0.8 0
271 1 0 0.857143 0
272 1 0.0571429 0.857143 0
273 1 0.114286 0.857143 0
274 1 0.171429 0.857143 0
275 1 0.228571 0.857143 0
276 1 0.285714 0.857143 0
277 1 0.342857 0.857143 0
278 1 0.4 0.857143 0
279 1 0.457143 0.857143 0
280 1 0.514286 0.857143 0
281 1 0.571429 0.857143 0
282 1 0.628571 0.857143 0
283 1 0.685714 0.857143 0
284 1 0.742857 0.857143 0
285 1 0.8 0.857143 0
286 1 0.857143 0.857143 0
287 1 0.914286 0.857143 0
288 1 0.971429 0.857143 0
289 1 0 0.914286 0
290 1 0.0571429 0.914286 0
291 1 0.114286 0.914286 0
292 1 0.171429 0.914286 0
293 1 0.228571 0.914286 0
294 1 0.285714 0.914286 0
295 1 0.342857 0.914286 0
296 1 0.4 0.914286 0
297 1 0.457143 0.914286 0
298 1 0.514286 0.914286 0
299 1 0.571429 0.914286 0
300 1 0.628571 0.914286 0
301 1 0.685714 0.914286 0
302 1 0.742857 0.914286 0
303 1 0.8 0.914286 0
304 1 0.857143 0.914286 0
305 1 0.914286 0.914286 0
306 1 0.971429 0.914286 0
307 1 0 0.971429 0
308 1 0.0571429 0.971429 0
309 1 0.114286 0.971429 0
310 1 0.171429 0.971429 0
311 1 0.228571 0.971429 0
312 1 0.285714 0.971429 0
313 1 0.342857 0.971429 0
314 1 0.4 0.971429 0
315 1 0.457143 0.971429 0
316 1 0.514286 0.971429 0
317 1 0.571429 0.971429 0
318 1 0.628571 0.971429 0
319 1 0.685714 0.971429 0
320 1 0.742857 0.971429 0
321 1 0.8 0.971429 0
322 1 0.857143 0.971429 0
323 1 0.914286 0.971429 0
324 1 0.971429 0.971429 0
325 1 0 0 0.0571429
326 1 0.0571429 0 0.0571429
327 1 0.114286 0 0.0571429
328 1 0.171429 0 0.0571429
329 1 0.228571 0 0.0571429
330 1 0.285714 0 0.0571429
331 1 0.342857 0 0.0571429
332 1 0.4 0 0.0571429
333 1 0.457143 0 0.0571429
334 1 0.514286 0 0.0571429
335 1 0.571429 0 0.0571429
336 1 0.628571 0 0.0571429
337 1 0.685714 0 0.0571429
338 1 0.742857 0 0.0571429
339 1 0.8 0 0.0571429
340 1 0.857143 0 0.0571429
341 1 0.914286 0 0.0571429
342 1 0.971429 0 0.0571429
343 1 0 0.0571429 0.0571429
344 1 0.0571429 0.0571429 0.0571429
345 1 0.114286 0.0571429 0.0571429
346 1 0.171429 0.0571429 0.0571429
347 1 0.228571 0.0571429 0.0571429
348 1 0.285714 0.0571429 0.0571429
349 1 0.342857 0.0571429 0.0571429
350 1 0.4 0.0571429 0.0571429
351 1 0.457143 0.0571429 0.0571429
352 1 0.514286 0.0571429 0.0571429
353 1 0.571429 0.0571429 0.0571429
354 1 0.628571 0.0571429 0.0571429
355 1 0.685714 0.0571429 0.0571429
356 1 0.742857 0.0571429 0.0571429
357 1 0.8 0.0571429 0.0571429
358 1 0.857143 0.0571429 0.0571429
359 1 0.914286 0.0571429 0.0571429
360 1 0.971429 0.0571429 0.0571429
361 1 0 0.114286 0.0571429
362 1 0.0571429 0.114286 0.0571429
363 1 0.114286 0.114286 0.0571429
364 1 0.171429 0.114286 0.0571429
365 1 0.228571 0.114286 0.0571429
366 1 0.285714 0.114286 0.0571429
367 1 0.342857 0.114286 0.0571429
368 1 0.4 0.114286 0.0571429
369 1 0.457143 0.114286 0.0571429
370 1 0.514286 0.114286 0.0571429
371 1 0.571429 0.114286 0.0571429
372 1 0.628571 0.114286 0.0571429
373 1 0.685714 0.114286 0.0571429
374 1 0.742857 0.114286 0.0571429
375 1 0.8 0.114286 0.0571429
376 1 0.857143 0.114286 0.0571429
377 1 0.914286 0.114286 0.0571429
378 1 0.971429 0.114286 0.0571429
379 1 0 0.171429 0.0571429
380 1 0.0571429 0.171429 0.0571429
381 1 0.114286 0.171429 0.0571429
382 1 0.171429 0.171429 0.0571429
383 1 0.228571 0.171429 0.0571429
384 1 0.285714 0.171429 0.0571429
385 1 0.342857 0.171429 0.0571429
386 1 0.4 0.171429 0.0571429
387 1 0.457143 0.171429 0.0571429
388 1 0.514286 0.171429 0.0571429
389 1 0.571429 0.171429 0.0571429
390 1 0.628571 0.171429 0.0571429
391 1 0.685714 0.171429 0.0571429
392 1 0.742857 0.171429 0.0571429
393 1 0.8 0.171429 0.0571429
394 1 0.857143 0.171429 0.0571429
395 1 0.914286 0.171429 0.0571429
396 1 0.971429 0.171429 0.0571429
397 1 0 0.228571 0.0571429
398 1 0.0571429 0.228571 0.0571429
399 1 0.114286 0.228571 0.0571429
400 1 0.171429 0.228571 0.0571429
401 1 0.228571 0.228571 0.0571429
402 1 0.285714 0.228571 0.0571429
403 1 0.342857 0.228571 0.0571429
404 1 0.4 0.228571 0.0571429
405 1 0.457143 0.228571 0.0571429
406 1 0.514286 0.228571 0.0571429
407 1 0.571429 0.228571 0.0571429
408 1 0.628571 0.228571 0.0571429
409 1 0.685714 0.228571 0.0571429
410 1 0.742857 0.228571 0.0571429
411 1 0.8 0.228571 0.0571429
412 1 0.857143 0.228571 0.0571429
413 1 0.914286 0.228571 0.0571429
414 1 0.971429 0.228571 0.0571429
415 1 0 0.285714 0.0571429
416 1 0.0571429 0.285714 0.0571429
417 1 0.114286 0.285714 0.0571429
418 1 0.171429 0.285714 0.0571429
419 1 0.228571 0.285714 0.0571429
420 1 0.285714 0.285714 0.0571429
421 1 0.342857 0.285714 0.0571429
422 1 0.4 0.285714 0.0571429
423 1 0.457143 0.285714 0.0571429
424 1 0.514286 0.285714 0.0571429
425 1 0.571429 0.285714 0.0571429
426 1 0.628571 0.285714 0.0571429
427 1 0.685714 0.285714 0.0571429
428 1 0.742857 0.285714 0.0571429
429 1 0.8 0.285714 0.0571429
430 1 0.857143 0.285714 0.0571429
431 1 0.914286 0.285714 0.0571429
432 1 0.971429 0.285714 0.0571429
433 1 0 0.342857 0.0571429
434 1 0.0571429 0.342857 0.0571429
435 1 0.114286 0.342857 0.0571429
436 1 0.171429 0.342857 0.0571429
437 1 0.228571 0.342857 0.0571429
438 1 0.285714 0.342857 0.0571429
439 1 0.342857 0.342857 0.0571429
440 1 0.4 0.342857 0.0571429
441 1 0.457143 0.342857 0.0571429
442 1 0.514286 0.342857 0.0571429
443 1 0.571429 0.342857 0.0571429
444 1 0.628571 0.342857 0.0571429
445 1 0.685714 0.342857 0.0571429
446 1 0.742857 0.342857 0.0571429
447 1 0.8 0.342857 0.0571429
448 1 0.857143 0.342857 0.0571429
449 1 0.914286 0.342857 0.0571429
450 1 0.971429 0.342857 0.0571429
451 1 0 0.4 0.0571429
452 1 0.0571429 0.4 0.0571429
453 1 0.114286 0.4 0.0571429
454 1 0.171429 0.4 0.0571429
455 1 0.228571 0.4 0.0571429
456 1 0.285714 0.4 0.0571429
457 1 0.342857 0.4 0.0571429
458 1 0.4 0.4 0.0571429
459 1 0.457143 0.4 0.0571429
460 1 0.514286 0.4 0.0571429
461 1 0.571429 0.4 0.0571429
462 1 0.628571 0.4 0.0571429
463 1 0.685714 0.4 0.0571429
464 1 0.742857 0.4 0.0571429
465 1 0.8 0.4 0.0571429
466 1 0.857143 0.4 0.0571429
467 1 0.914286 0.4 0.0571429
468 1 0.971429 0.4 0.0571429
469 1 0 0.457143 0.0571429
470 1 0.0571429 0.457143 0.0571429
471 1 0.114286 0.457143 0.0571429
472 1 0.171429 0.457143 0.0571429
473 1 0.228571 0.457143 0.0571429
474 1 0.285714 0.457143 0.0571429
475 1 0.342857 0.457143 0.0571429
476 1 0.4 0.457143 0.0571429
477 1 0.457143 0.457143 0.0571429
478 1 0.514286 0.457143 0.0571429
479 1 0.571429 0.457143 0.0571429
480 1 0.628571 0.457143 0.0571429
481 1 0.685714 0.457143 0.0571429
482 1 0.742857 0.457143 0.0571429
483 1 0.8 0.457143 0.0571429
484 1 0.857143 0.457143 0.0571429
485 1 0.914286 0.457143 0.0571429
486 1 0.971429 0.457143 0.0571429
487 1 0 0.514286 0.0571429
488 1 0.0571429 0.514286 0.0571429
489 1 0.114286 0.514286 0.0571429
490 1 0.171429 0.514286 0.0571429
491 1 0.228571 0.514286 0.0571429
492 1 0.285714 0.514286 0.0571429
493 1 0.342857 0.514286 0.0571429
494 1 0.4 0.514286 0.0571429
495 1 0.457143 0.514286 0.0571429
496 1 0.514286 0.514286 0.0571429
497 1 0.571429 0.514286 0.0571429
498 1 0.628571 0.514286 0.0571429
499 1 0.685714 0.514286 0.0571429
500 1 0.742857 0.514286 0.0571429
501 1 0.8 0.514286 0.0571429
502 1 0.857143 0.514286 0.0571429
503 1 0.914286 0.514286 0.0571429
504 1 0.971429 0.514286 0.0571429
505 1 0 0.571429 0.0571429
506 1 0.0571429 0.571429 0.0571429
507 1 0.114286 0.571429 0.0571429
508 1 0.171429 0.571429 0.0571429
509 1 0.228571 0.571429 0.0571429
510 1 0.285714 0.571429 0.0571429
511 1 0.342857 0.571429 0.0571429
512 1 0.4 0.571429 0.0571429
513 1 0.457143 0.571429 0.0571429
514 1 0.514286 0.571429 0.0571429
515 1 0.571429 0.571429 0.0571429
516 1 0.628571 0.571429 0.0571429
517 1 0.685714 0.571429 0.0571429
518 1 0.742857 0.571429 0.0571429
519 1 0.8 0.571429 0.0571429
520 1 0.857143 0.571429 0.0571429
521 1 0.914286 0.571429 0.0571429
522 1 0.971429 0.571429 0.0571429
523 1 0 0.628571 0.0571429
524 1 0.0571429 0.628571 0.0571429
525 1 0.114286 0.628571 0.0571429
526 1 0.171429 0.628571 0.0571429
527 1 0.228571 0.628571 0.0571429
528 1 0.285714 0.628571 0.0571429
529 1 0.342857 0.628571 0.0571429
530 1 0.4 0.628571 0.0571429
531 1 0.457143 0.628571 0.0571429
532 1 0.514286 0.628571 0.0571429
533 1 0.571429 0.628571 0.0571429
534 1 0.628571 0.628571 0.0571429
535 1 0.685714 0.628571 0.0571429
536 1 0.742857 0.628571 0.0571429
537 1 0.8 0.628571 0.0571429
538 1 0.857143 0.628571 0.0571429
539 1 0.914286 0.628571 0.0571429
540 1 0.971429 0.628571 0.0571429
541 1 0 0.685714 0.0571429
542 1 0.0571429 0.685714 0.0571429
543 1 0.114286 0.685714 0.0571429
544 1 0.171429 0.685714 0.0571429
545 1 0.228571 0.685714 0.0571429
546 1 0.285714 0.685714 0.0571429
547 1 0.342857 0.685714 0.0571429
548 1 0.4 0.685714 0.0571429
549 1 0.457143 0.685714 0.0571429
550 1 0.514286 0.685714 0.0571429
551 1 0.571429 0.685714 0.0571429
552 1 0.628571 0.685714 0.0571429
553 1 0.685714 0.685714 0.0571429
554 1 0.742857 0.685714 0.0571429
555 1 0.8 0.685714 0.0571429
556 1 0.857143 0.685714 0.0571429
557 1 0.914286 0.685714 0.0571429
558 1 0.971429 0.685714 0.0571429
559 1 0 0.742857 0.0571429
560 1 0.0571429 0.742857 0.0571429
561 1 0.114286 0.742857 0.0571429
562 1 0.171429 0.742857 0.0571429
563 1 0.228571 0.742857 0.0571429
564 1 0.285714 0.742857 0.0571429
565 1 0.342857 0.742857 0.0571429
566 1 0.4 0.742857 0.0571429
567 1 0.457143 0.742857 0.0571429
568 1 0.514286 0.742857 0.0571429
569 1 0.571429 0.742857 0.0571429
570 1 0.628571 0.742857 0.0571429
571 1 0.685714 0.742857 0.0571429
572 1 0.742857 0.742857 0.0571429
573 1 0.8 0.742857 0.0571429
574 1 0.857143 0.742857 0.0571429
575 1 0.914286 0.742857 0.0571429
576 1 0.971429 0.742857 0.0571429
577 1 0 0.8 0.0571429
578 1 0.0571429 0.8 0.0571429
579 1 0.114286 0.8 0.0571429
580 1 0.171429 0.8 0.0571429
581 1 0.228571 0.8 0.0571429
582 1 0.285714 0.8 0.0571429
583 1 0.342857 0.8 0.0571429
584 1 0.4 0.8 0.0571429
585 1 0.457143 0.8 0.0571429
586 1 0.514286 0.8 0.0571429
587 1 0.571429 0.8 0.0571429
588 1 0.628571 0.8 0.0571429
589 1 0.685714 0.8 0.0571429
590 1 0.742857 0.8 0.0571429
591 1 0.8 0.8 0.0571429
592 1 0.857143 0.8 0.0571429
593 1 0.914286 0.8 0.0571429
594 1 0.971429 0.8 0.0571429
595 1 0 0.857143 0.0571429
596 1 0.0571429 0.857143 0.0571429
597 1 0.114286 0.857143 0.0571429
598 1 0.171429 0.857143 0.0571429
599 1 0.228571 0.857143 0.0571429
600 1 0.285714 0.857143 0.0571429
601 1 0.342857 0.857143 0.0571429
602 1 0.4 0.857143 0.0571429
603 1 0.457143 0.857143 0.0571429
604 1 0.514286 0.857143 0.0571429
605 1 0.571429 0.857143 0.0571429
606 1 0.628571 0.857143 0.0571429
607 1 0.685714 0.857143 0.0571429
608 1 0.742857 0.857143 0.0571429
609 1 0.8 0.857143 0.0571429
610 1 0.857143 0.857143 0.0571429
611 1 0.914286 0.857143 0.0571429
612 1 0.971429 0.857143 0.0571429
613 1 0 0.914286 0.0571429
614 1 0.0571429 0.914286 0.0571429
615 1 0.114286 0.914286 0.0571429
616 1 0.171429 0.914286 0.0571429
617 1 0.228571 0.914286 0.0571429
618 1 0.285714 0.914286 0.0571429
619 1 0.342857 0.914286 0.0571429
620 1 0.4 0.914286 0.0571429
621 1 0.457143 0.914286 0.0571429
622 1 0.514286 0.914286 0.0571429
623 1 0.571429 0.914286 0.0571429
624 1 0.628571 0.914286 0.0571429
625 1 0.685714 0.914286 0.0571429
626 1 0.742857 0.914286 0.0571429
627 1 0.8 0.914286 0.0571429
628 1 0.857143 0.914286 0.0571429
629 1 0.914286 0.914286 0.0571429
630 1 0.971429 0.914286 0.0571429
631 1 0 0.971429 0.0571429
632 1 0.0571429 0.971429 0.0571429
633 1 0.114286 0.971429 0.0571429
634 1 0.171429 0.971429 0.0571429
635 1 0.228571 0.971429 0.0571429
636 1 0.285714 0.971429 0.0571429
637 1 0.342857 0.971429 0.0571429
638 1 0.4 0.971429 0.0571429
639 1 0.457143 0.971429 0.0571429
640 1 0.514286 0.971429 0.0571429
641 1 0.571429 0.971429 0.0571429
642 1 0.628571 0.971429 0.0571429
643 1 0.685714 0.971429 0.0571429
644 1 0.742857 0.971429 0.0571429
645 1 0.8 0.971429 0.0571429
646 1 0.857143 0.971429 0.0571429
647 1 0.914286 0.971429 0.0571429
648 1 0.971429 0.971429 0.0571429
649 1 0 0 0.114286
650 1 0.0571429 0 0.114286
651 1 0.114286 0 0.114286
652 1 0.171429 0 0.114286
653 1 0.228571 0 0.114286
654 1 0.285714 0 0.114286
655 1 0.342857 0 0.114286
656 1 0.4 0 0.114286
657 1 0.457143 0 0.114286
658 1 0.514286 0 0.114286
659 1 0.571429 0 0.114286
660 1 0.628571 0 0.114286
661 1 0.685714 0 0.114286
662 1 0.742857 0 0.114286
663 1 0.8 0 0.114286
664 1 0.857143 0 0.114286
665 1 0.914286 0 0.114286
666 1 0.971429 0 0.114286
667 1 0 0.0571429 0.114286
668 1 0.0571429 0.0571429 0.114286
669 1 0.114286 0.0571429 0.114286
670 1 0.171429 0.0571429 0.114286
671 1 0.228571 0.0571429 0.114286
672 1 0.285714 0.0571429 0.114286
673 1 0.342857 0.0571429 0.114286
674 1 0.4 0.0571429 0.114286
675 1 0.457143 0.0571429 0.114286
676 1 0.514286 0.0571429 0.114286
677 1 0.571429 0.0571429 0.114286
678 1 0.628571 0.0571429 0.114286
679 1 0.685714 0.0571429 0.114286
680 1 0.742857 0.0571429 0.114286
681 1 0.8 0.0571429 0.114286
682 1 0.857143 0.0571429 0.114286
683 1 0.914286 0.0571429 0.114286
684 1 0.971429 0.0571429 0.114286
685 1 0 0.114286 0.114286
686 1 0.0571429 0.114286 0.114286
687 1 0.114286 0.114286 0.114286
688 1 0.171429 0.114286 0.114286
689 1 0.228571 0.114286 0.114286
690 1 0.285714 0.114286 0.114286
691 1 0.342857 0.114286 0.114286
692 1 0.4 0.114286 0.114286
693 1 0.457143 0.114286 0.114286
694 1 0.514286 0.114286 0.114286
695 1 0.571429 0.114286 0.114286
696 1 0.628571 0.114286 0.114286
697 1 0.685714 0.114286 0.114286
698 1 0.742857 0.114286 0.114286
699 1 0.8 0.114286 0.114286
700 1 0.857143 0.114286 0.114286
701 1 0.914286 0.114286 0.114286
702 1 0.971429 0.114286 0.114286
703 1 0 0.171429 0.114286
704 1 0.0571429 0.171429 0.114286
705 1 0.114286 0.171429 0.114286
706 1 0.171429 0.171429 0.114286
707 1 0.228571 0.171429 0.114286
708 1 0.285714 0.171429 0.114286
709 1 0.342857 0.171429 0.114286
710 1 0.4 0.171429 0.114286
711 1 0.457143 0.171429 0.114286
712 1 0.514286 0.171429 0.114286
713 1 0.571429 0.171429 0.114286
714 1 0.628571 0.171429 0.114286
715 1 0.685714 0.171429 0.114286
716 1 0.742857 0.171429 0.114286
717 1 0.8 0.171429 0.114286
718 1 0.857143 0.171429 0.114286
719 1 0.914286 0.171429 0.114286
720 1 0.971429 0.171429 0.114286
721 1 0 0.228571 0.114286
722 1 0.0571429 0.228571 0.114286
723 1 0.114286 0.228571 0.114286
724 1 0.171429 0.228571 0.114286
725 1 0.228571 0.228571 0.114286
726 1 0.285714 0.228571 0.114286
727 1 0.342857 0.228571 0.114286
728 1 0.4 0.228571 0.114286
729 1 0.457143 0.228571 0.114286
730 1 0.514286 0.228571 0.114286
731 1 0.571429 0.228571 0.114286
732 1 0.628571 0.228571 0.114286
733 1 0.685714 0.228571 0.114286
734 1 0.742857 0.228571 0.114286
735 1 0.8 0.228571 0.114286
736 1 0.857143 0.228571 0.114286
737 1 0.914286 0.228571 0.114286
738 1 0.971429 0.228571 0.114286
739 1 0 0.285714 0.114286
740 1 0.0571429 0.285714 0.114286
741 1 0.114286 0.285714 0.114286
742 1 0.171429 0.285714 0.114286
743 1 0.228571 0.285714 0.114286
744 1 0.285714 0.285714 0.114286
745 1 0.342857 0.285714 0.114286
746 1 0.4 0.285714 0.114286
747 1 0.457143 0.285714 0.114286
748 1 0.514286 0.285714 0.114286
749 1 0.571429 0.285714 0.114286
750 1 0.628571 0.285714 0.114286
751 1 0.685714 0.285714 0.114286
752 1 0.742857 0.285714 0.114286
753 1 0.8 0.285714 0.114286
754 1 0.857143 0.285714 0.114286
755 1 0.914286 0.285714 0.114286
756 1 0.971429 0.285714 0.114286
757 1 0 0.342857 0.114286
758 1 0.0571429 0.342857 0.114286
759 1 0.114286 0.342857 0.114286
760 1 0.171429 0.342857 0.114286
761 1 0.228571 0.342857 0.114286
762 1 0.285714 0.342857 0.114286
763 1 0.342857 0.342857 0.114286
764 1 0.4 0.342857 0.114286
765 1 0.457143 0.342857 0.114286
766 1 0.514286 0.342857 0.114286
767 1 0.571429 0.342857 0.114286
768 1 0.628571 0.342857 0.114286
769 1 0.685714 0.342857 0.114286
770 1 0.742857 0.342857 0.114286
771 1 0.8 0.342857 0.114286
772 1 0.857143 0.342857 0.114286
773 1 0.914286 0.342857 0.114286
774 1 0.971429 0.342857 0.114286
775 1 0 0.4 0.114286
776 1 0.0571429 0.4 0.114286
777 1 0.114286 0.4 0.114286
778 1 0.171429 0.4 0.114286
779 1 0.228571 0.4 0.114286
780 1 0.285714 0.4 0.114286
781 1 0.342857 0.4 0.114286
782 1 0.4 0.4 0.114286
783 1 0.457143 0.4 0.114286
784 1 0.514286 0.4 0.114286
785 1 0.571429 0.4 0.114286
786 1 0.628571 0.4 0.114286
787 1 0.685714 0.4 0.114286
788 1 0.742857 0.4 0.114286
789 1 0.8 0.4 0.114286
790 1 0.857143 0.4 0.114286
791 1 0.914286 0.4 0.114286
792 1 0.971429 0.4 0.114286
793 1 0 0.457143 0.114286
794 1 0.0571429 0.457143 0.114286
795 1 0.114286 0.457143 0.114286
796 1 0.171429 0.457143 0.114286
797 1 0.228571 0.457143 0.114286
798 1 0.285714 0.457143 0.114286
799 1 0.342857 0.457143 0.114286
800 1 0.4 0.457143 0.114286
801 1 0.457143 0.457143 0.114286
802 1 0.514286 0.457143 0.114286
803 1 0.571429 0.457143 0.114286
804 1 0.628571 0.457143 0.114286
805 1 0.685714 0.457143 0.114286
806 1 0.742857 0.457143 0.114286
807 1 0.8 0.457143 0.114286
808 1 0.857143 0.457143 0.114286
809 1 0.914286 0.457143 0.114286
810 1 0.971429 0.457143 0.114286
811 1 0 0.514286 0.114286
812 1 0.0571429 0.514286 0.114286
813 1 0.114286 0.514286 0.114286
814 1 0.171429 0.514286 0.114286
815 1 0.228571 0.514286 0.114286
816 1 0.285714 0.514286 0.114286
817 1 0.342857 0.514286 0.114286
818 1 0.4 0.514286 0.114286
819 1 0.457143 0.514286 0.114286
820 1 0.514286 0.514286 0.114286
821 1 0.571429 0.514286 0.114286
822 1 0.628571 0.514286 0.114286
823 1 0.685714 0.514286 0.114286
824 1 0.742857 0.514286 0.114286
825 1 0.8 0.514286 0.114286
826 1 0.857143 0.514286 0.114286
827 1 0.914286 0.514286 0.114286
828 1 0.971429 0.514286 0.114286
829 1 0 0.571429 0.114286
830 1 0.0571429 0.571429 0.114286
831 1 0.114286 0.571429 0.114286
832 1 0.171429 0.571429 0.114286
833 1 0.228571 0.571429 0.114286
834 1 0.285714 0.571429 0.114286
835 1 0.342857 0.571429 0.114286
836 1 0.4 0.571429 0.114286
837 1 0.457143 0.571429 0.114286
838 1 0.514286 0.571429 0.114286
839 1 0.571429 0.571429 0.114286
840 1 0.628571 0.571429 0.114286
841 1 0.685714 0.571429 0.114286
842 1 0.742857 0.571429 0.114286
843 1 0.8 0.571429 0.114286
844 1 0.857143 0.571429 0.114286
845 1 0.914286 0.571429 0.114286
846 1 0.971429 0.571429 0.114286
847 1 0 0.628571 0.114286
848 1 0.0571429 0.628571 0.114286
849 1 0.114286 0.628571 0.114286
850 1 0.171429 0.628571 0.114286
851 1 0.228571 0.628571 0.114286
852 1 0.285714 0.628571 0.114286
853 1 0.342857 0.628571 0.114286
854 1 0.4 0.628571 0.114286
855 1 0.457143 0.628571 0.114286
856 1 0.514286 0.628571 0.114286
857 1 0.571429 0.628571 0.114286
858 1 0.628571 0.628571 0.114286
859 1 0.685714 0.628571 0.114286
860 1 0.742857 0.628571 0.114286
861 1 0.8 0.628571 0.114286
862 1 0.857143 0.628571 0.114286
863 1 0.914286 0.628571 0.114286
864 1 0.971429 0.628571 0.114286
865 1 0 0.685714 0.114286
866 1 0.0571429 0.685714 0.114286
867 1 0.114286 0.685714 0.114286
868 1 0.171429 0.685714 0.114286
869 1 0.228571 0.685714 0.114286
870 1 0.285714 0.685714 0.114286
871 1 0.342857 0.685714 0.114286
872 1 0.4 0.685714 0.114286
873 1 0.457143 0.685714 0.114286
874 1 0.514286 0.685714 0.114286
875 1 0.571429 0.685714 0.114286
876 1 0.628571 0.685714 0.114286
877 1 0.685714 0.685714 0.114286
878 1 0.742857 0.685714 0.114286
879 1 0.8 0.685714 0.114286
880 1 0.857143 0.685714 0.114286
881 1 0.914286 0.685714 0.114286
882 1 0.971429 0.685714 0.114286
883 1 0 0.742857 0.114286
884 1 0.0571429 0.742857 0.114286
885 1 0.114286 0.742857 0.114286
886 1 0.171429 0.742857 0.114286
887 1 0.228571 0.742857 0.114286
888 1 0.285714 0.742857 0.114286
889 1 0.342857 0.742857 0.114286
890 1 0.4 0.742857 0.114286
891 1 0.457143 0.742857 0.114286
892 1 0.514286 0.742857 0.114286
893 1 0.571429 0.742857 0.114286
894 1 0.628571 0.742857 0.114286
895 1 0.685714 0.742857 0.114286
896 1 0.742857 0.742857 0.114286
897 1 0.8 0.742857 0.114286
898 1 0.857143 0.742857 0.114286
899 1 0.914286 0.742857 0.114286
900 1 0.971429 0.742857 0.114286
901 1 0 0.8 0.114286
902 1 0.0571429 0.8 0.114286
903 1 0.114286 0.8 0.114286
904 1 0.171429 0.8 0.114286
905 1 0.228571 0.8 0.114286
906 1 0.285714 0.8 0.114286
907 1 0.342857 0.8 0.114286
908 1 0.4 0.8 0.114286
909 1 0.457143 0.8 0.114286
910 1 0.514286 0.8 0.114286
911 1 0.571429 0.8 0.114286
912 1 0.628571 0.8 0.114286
913 1 0.685714 0.8 0.114286
914 1 0.742857 0.8 0.114286
915 1 0.8 0.8 0.114286
916 1 0.857143 0.8 0.114286
917 1 0.914286 0.8 0.114286
918 1 0.971429 0.8 0.114286
919 1 0 0.857143 0.114286
920 1 0.0571429 0.857143 0.114286
921 1 0.114286 0.857143 0.114286
922 1 0.171429 0.857143 0.114286
923 1 0.228571 0.857143 0.114286
924 1 0.285714 0.857143 0.114286
925 1 0.342857 0.857143 0.114286
926 1 0.4 0.857143 0.114286
927 1 0.457143 0.857143 0.114286
928 1 0.514286 0.857143 0.114286
929 1 0.571429 0.857143 0.114286
930 1 0.628571 0.857143 0.114286
931 1 0.685714 0.857143 0.114286
932 1 0.742857 0.857143 0.114286
933 1 0.8 0.857143 0.114286
934 1 0.857143 0.857143 0.114286
935 1 0.914286 0.857143 0.114286
936 1 0.971429 0.857143 0.114286
937 1 0 0.914286 0.114286
938 1 0.0571429 0.914286 0.114286
939 1 0.114286 0.914286 0.114286
940 1 0.171429 0.914286 0.114286
941 1 0.228571 0.914286 0.114286
942 1 0.285714 0.914286 0.114286
943 1 0.342857 0.914286 0.114286
944 1 0.4 0.914286 0.114286
945 1 0.457143 0.914286 0.114286
946 1 0.514286 0.914286 0.114286
947 1 0.571429 0.914286 0.114286
948 1 0.628571 0.914286 0.114286
949 1 0.685714 0.914286 0.114286
950 1 0.742857 0.914286 0.114286
951 1 0.8 0.914286 0.114286
952 1 0.857143 0.914286 0.114286
953 1 0.914286 0.914286 0.114286
954 1 0.971429 0.914286 0.114286
955 1 0 0.971429 0.114286
956 1 0.0571429 0.971429 0.114286
957 1 0.114286 0.971429 0.114286
958 1 0.171429 0.971429 0.114286
959 1 0.228571 0.971429 0.114286
960 1 0.285714 0.971429 0.114286
961 1 0.342857 0.971429 0.114286
962 1 0.4 0.971429 0.114286
963 1 0.457143 0.971429 0.114286
964 1 0.514286 0.971429 0.114286
965 1 0.571429 0.971429 0.114286
966 1 0.628571 0.971429 0.114286
967 1 0.685714 0.971429 0.114286
968 1 0.742857 0.971429 0.114286
969 1 0.8 0.971429 0.114286
970 1 0.857143 0.971429 0.114286
971 1 0.914286 0.971429 0.114286
972 1 0.971429 0.971429 0.114286
973 1 0 0 0.171429
974 1 0.0571429 0 0.171429
975 1 0.114286 0 0.171429
976 1 0.171429 0 0.171429
977 1 0.228571 0 0.171429
978 1 0.285714 0 0.171429
979 1 0.342857 0 0.171429
980 1 0.4 0 0.171429
981 1 0.457143 0 0.171429
982 1 0.514286 0 0.171429
983 1 0.571429 0 0.171429
984 1 0.628571 0 0.171429
985 1 0.685714 0 0.171429
986 1 0.742857 0 0.171429
987 1 0.8 0 0.171429
988 1 0.857143 0 0.171429
989 1 0.914286 0 0.171429
990 1 0.971429 0 0.171429
991 1 0 0.0571429 0.171429
992 1 0.0571429 0.0571429 0.171429
993 1 0.114286 0.0571429 0.171429
994 1 0.171429 0.0571429 0.171429
995 1 0.228571 0.0571429 0.171429
996 1 0.285714 0.0571429 0.171429
997 1 0.342857 0.0571429 0.171429
998 1 0.4 0.0571429 0.171429
999 1 0.457143 0.0571429 0.171429
1000 1 0.514286 0.0571429 0.171429
1001 1 0.571429 0.0571429 0.171429
1002 1 0.628571 0.0571429 0.171429
1003 1 0.685714 0.0571429 0.171429
1004 1 0.742857 0.0571429 0.171429
1005 1 0.8 0.0571429 0.171429
1006 1 0.857143 0.0571429 0.171429
1007 1 0.914286 0.0571429 0.171429
1008 1 0.971429 0.0571429 0.171429
1009 1 0 0.114286 0.171429
1010 1 0.0571429 0.114286 0.171429
1011 1 0.114286 0.114286 0.171429
1012 1 0.171429 0.114286 0.171429
1013 1 0.228571 0.114286 0.171429
1014 1 0.285714 0.114286 0.171429
1015 1 0.342857 0.114286 0.171429
1016 1 0.4 0.114286 0.171429
1017 1 0.457143 0.114286 0.171429
1018 1 0.514286 0.114286 0.171429
1019 1 0.571429 0.114286 0.171429
1020 1 0.628571 0.114286 0.171429