ITEM: TIMESTEP
0
ITEM: NUMBER OF ATOMS
16
ITEM: BOX BOUNDS pp pp pp
-2.0000000000000000e+01 2.0000000000000000e+01
-2.0000000000000000e+01 2.0000000000000000e+01
-2.0000000000000000e+01 2.0000000000000000e+01
ITEM: ATOMS id mol type x y z ix iy iz vx vy vz c_quat[1] c_quat[2] c_quat[3] c_quat[4] angmomx angmomy angmomz
1 1 1 -6.133472972454683e-01 -6.574781716697657e-01  3.606522635120193e-01 0 0 0  5.386890022865587e-02  2.262922525602673e-02  2.488229114473675e-01  9.964752158482045e-01 -5.325355573323980e-02  1.139116380710251e-02 -6.380787090289707e-02  1.772010258006941e-01 -2.958853170000101e-01 -2.624137503614725e-01
2 1 2 -4.526276424735620e-01 -1.003065053434590e+00  7.258693379233350e-01 0 0 0 -3.995003075629463e-02  2.696951106370198e-01 -1.898645454819566e-01  9.369923833143513e-01  1.122071604464856e-01  6.732538499716349e-02  3.239168400846305e-01 -3.061453937596818e-02 -1.176951893148060e-01  4.007470242647321e-02
3 1 3 -9.883421085226374e-02 -1.239775807128058e+00  1.069462285786361e+00 0 0 0 -2.078453529520138e-01 -1.362872235767304e-01 -6.062477950201746e-02  7.979649320918270e-01  1.447309635452787e-01  1.837414269936639e-01  5.554673737937029e-01 -3.676034584820381e-02 -6.308707793373186e-02 -1.479860157608762e-01
4 1 4  2.937771854299740e-01 -1.257975092489986e+00  1.425891608660695e+00 0 0 0 -2.396982418131700e-01 -5.624721730878831e-01  3.247442290503672e-02  5.660864821344559e-01  1.468827549948105e-01  9.873742533340191e-02  8.051226439917721e-01 -1.652364596501651e-01  2.860623077030974e-01  3.354351975310588e-01
5 1 1  6.286896795685166e-01 -1.018334339511973e+00  1.768934633967284e+00 0 0 0 -1.611489735682835e-01 -2.288969747076015e-01 -1.355332496264956e-01  2.533023785125306e-01  1.206231316167983e-01  8.583012223905846e-02  9.559922359911086e-01  7.151030852881342e-02 -9.415592891043179e-02  1.342288153931229e-01
6 1 2  7.901522619067975e-01 -6.766341805565261e-01  2.154016070549574e+00 0 0 0 -4.701706588477693e-02  1.921671558511004e-01  1.458824279129722e-01 -3.855807343534716e-02  8.405913137017908e-02  2.236505169306371e-02  9.954632800204194e-01  9.218622989776322e-02 -5.640128930702024e-01  9.287105657777776e-02
7 1 3  7.115777184886873e-01 -4.019557932514353e-01  2.569568683291529e+00 0 0 0  5.098438305112513e-02 -3.845955552200959e-02 -1.424419628574967e-01 -4.559284433024802e-01  1.004550065061007e-01 -5.252474529475878e-02  8.827679181910482e-01  3.479046835475834e-01  4.244922695910593e-01 -1.358288260435836e-01
8 1 4  4.697331037700536e-01 -3.025169796710685e-01  3.066800711751920e+00 0 0 0  3.782797134841193e-01 -4.953992506010833e-02  1.626392045834847e-01  7.680212215404908e-01 -9.582139884533597e-03  3.658677589040892e-02 -6.393066507464399e-01  4.428876596361290e-02  7.868414126013584e-02 -1.271360044432503e-01
9 2 1  4.056113349449895e-01 -1.443775499211899e+00  3.059072650334112e+00 0 0 0  4.912038408665491e-02  4.126064731871670e-02  1.222385633449523e-02 -2.329997575451234e-01  6.886863952313410e-01  6.747873944883376e-01 -1.268232401684158e-01  3.282916621721876e-02 -1.267054709525600e-04  1.559787854176960e-01
10 2 2 -3.202842905928804e-02 -1.294752097116472e+00  2.720107115139218e+00 0 0 0  1.939216183073483e-01  1.107523548538194e-01 -4.050505160199710e-02 -2.466206187190723e-01  8.744456399178389e-01  3.937083608782400e-01 -1.397026120939516e-01 -1.700813500181381e-01 -4.563093565840761e-01 -3.031851362703951e-01
11 2 3 -3.161385511231423e-01 -9.084141759061595e-01  2.412520787178206e+00 0 0 0 -3.513607339206460e-01 -1.882241906753569e-01  3.614793819905130e-01 -8.747590085090901e-02  9.773676023882290e-01  1.449354911309558e-01 -1.268630757266878e-01 -3.708221604627426e-01 -4.910838182594122e-01  9.435948331955418e-02
12 2 4 -3.893939125182087e-01 -4.866605488242826e-01  2.006177777000424e+00 0 0 0 -1.188642917357977e-01  2.235528245655188e-01  9.265586122144348e-03 -3.181169300779214e-02  9.634374984140114e-01 -2.442360692534372e-01 -1.054748563087919e-01 -2.823010018885836e-01  1.027648566082889e-01  1.017523347678070e-01
13 3 1 -6.232643040853247e-02 -7.155965522127516e-02  1.559320605273072e+00 0 0 0 -1.446616296238799e-01 -1.155205990978724e-01  1.331477187595642e-01 -3.278607069657226e-02  7.922941528811774e-01 -6.084214170523914e-01 -3.191282109962716e-02 -2.549872189037434e-01  2.754663721641154e-01  5.806416868630132e-02
14 3 2  1.788409039091334e-01 -5.516721349427200e-02  1.021273149730916e+00 0 0 0  5.154712003586254e-02 -3.661102651077563e-01 -6.630782880801242e-02  4.718868628834144e-02  6.316396208287697e-01 -7.737349519945346e-01  1.178309584462780e-02 -1.199984717331652e-01  6.844768922886051e-02  2.161595932308759e-01
15 3 3  4.513439961906016e-01 -2.379560738327449e-01  5.957328539616000e-01 0 0 0 -2.021424496209139e-01  2.334122693355961e-01  8.133374252278069e-03 -5.869980642620334e-02 -3.422935820341442e-01  9.376740835056506e-01  1.251996587850869e-02 -1.701391112413525e-01  1.870292260510287e-02 -2.682954134361106e-01
16 3 4  5.077649359807950e-01 -5.565625134533541e-01  1.655875784458836e-01 0 0 0 -1.920213116286801e-01 -8.105295741355378e-02 -4.693508108850740e-02 -8.582818143150042e-02  8.707732197394232e-04  9.939540921464659e-01 -6.846917358531610e-02  1.733210765264759e-02 -3.287658886280769e-01  1.085334141225924e-01
ITEM: TIMESTEP
1000
ITEM: NUMBER OF ATOMS
16
ITEM: BOX BOUNDS pp pp pp
-2.0000000000000000e+01 2.0000000000000000e+01
-2.0000000000000000e+01 2.0000000000000000e+01
-2.0000000000000000e+01 2.0000000000000000e+01
ITEM: ATOMS id mol type x y z ix iy iz vx vy vz c_quat[1] c_quat[2] c_quat[3] c_quat[4] angmomx angmomy angmomz
1 1 1 -6.128549084994226e-01 -6.572778389823223e-01  3.630256772532602e-01 0 0 0  4.461491400475698e-02  1.742890088413964e-02  2.254011142298483e-01  9.964225240770437e-01 -5.088418648846164e-02  8.586539099320462e-03 -6.692700817784120e-02  1.959718223093670e-01 -2.454026304300642e-01 -2.580696736957008e-01
2 1 2 -4.530727282119115e-01 -1.000382591666255e+00  7.238959244640455e-01 0 0 0 -4.908356603557974e-02  2.664868254010797e-01 -2.040896852233533e-01  9.369690975662404e-01  1.113064318879973e-01  6.645782259943067e-02  3.244736449106620e-01 -5.984838712905482e-02 -8.584421458258146e-02  4.544374817762667e-02
3 1 3 -1.009360928809112e-01 -1.241078285753196e+00  1.069072495120114e+00 0 0 0 -2.124932320352396e-01 -1.242198274832461e-01 -1.729511717816789e-02  7.990976481733508e-01  1.445351430821141e-01  1.827303993262581e-01  5.542221055318153e-01  3.890815711501552e-02 -1.011529250189273e-01 -1.535697585381816e-01
4 1 4  2.913983135354834e-01 -1.263500395076391e+00  1.426135548491906e+00 0 0 0 -2.359601382281791e-01 -5.423877377879134e-01  1.656221138469295e-02  5.629475157352143e-01  1.479088000870748e-01  1.028105752131037e-01  8.066244894674989e-01 -1.977728731120830e-01  2.746739394421366e-01  3.384349443661466e-01
5 1 1  6.271447190483639e-01 -1.020673018060080e+00  1.767554455470993e+00 0 0 0 -1.478971717571184e-01 -2.385785017222348e-01 -1.400566339949549e-01  2.518064017031215e-01  1.196777176849755e-01  8.494980171562401e-02  9.565847119515960e-01  7.368401274905551e-02 -9.153256210979005e-02  1.364340884226053e-01
6 1 2  7.897750783819789e-01 -6.747406221668456e-01  2.155542246750644e+00 0 0 0 -2.887010596356795e-02  1.861432769493873e-01  1.602113660357931e-01 -3.969348085690023e-02  7.777232605791466e-02  2.166678120249689e-02  9.959450002230683e-01  8.912500019811398e-02 -5.212689348466003e-01  1.148123619954176e-01
7 1 3  7.121272467151003e-01 -4.022657608466316e-01  2.568261988793848e+00 0 0 0  5.917049214279180e-02 -2.345036540184867e-02 -1.185592427508933e-01 -4.546762497968423e-01  1.029346015820026e-01 -5.832515883778733e-02  8.827639273975694e-01  3.243434563266365e-01  4.284229756710491e-01 -1.345005659701602e-01
8 1 4  4.735330501365115e-01 -3.030012684529704e-01  3.068421888897190e+00 0 0 0  3.816379389278317e-01 -4.730160514145803e-02  1.615095266791961e-01  7.670129636168568e-01 -9.812108077319588e-03  3.759761600682230e-02 -6.404539448308278e-01  2.863426166306376e-02  8.662887565195959e-02 -1.387479049221256e-01
9 2 1  4.060804714467412e-01 -1.443400459125490e+00  3.059079392798514e+00 0 0 0  4.474144958083097e-02  3.374763270619622e-02 -1.085834698847767e-02 -2.329171817761302e-01  6.874205645846553e-01  6.760548809601966e-01 -1.270919027691124e-01  5.155664921318639e-03 -9.346606888439272e-04  1.571306350902850e-01
10 2 2 -3.011373445842984e-02 -1.293648272874990e+00  2.719688755685637e+00 0 0 0  1.886684377966543e-01  1.099467675391213e-01 -4.328251166268528e-02 -2.431705298995589e-01  8.770016610714468e-01  3.917513308327086e-01 -1.351557422275969e-01 -2.011306245719733e-01 -4.497260579917216e-01 -2.805306325732841e-01
11 2 3 -3.197730089973426e-01 -9.102607940443087e-01  2.416065979415456e+00 0 0 0 -3.749587326610101e-01 -1.807562878239137e-01  3.462651386039989e-01 -8.242192460275290e-02  9.782747523110761e-01  1.458383909359020e-01 -1.221323014796173e-01 -3.638381091925629e-01 -4.732789284435580e-01  7.597893821957835e-02
12 2 4 -3.906219052620187e-01 -4.844318224705439e-01  2.006350410288476e+00 0 0 0 -1.266379015598326e-01  2.218806637956715e-01  2.513756446015037e-02 -2.831391645082759e-02  9.637076543441073e-01 -2.434474225655420e-01 -1.058264217480135e-01 -2.762203719078248e-01  9.574775503171530e-02  1.080028657234111e-01
13 3 1 -6.375750650695980e-02 -7.280733239224692e-02  1.560554391123970e+00 0 0 0 -1.416536742812542e-01 -1.341060480382526e-01  1.132364291799434e-01 -2.858859927760564e-02  7.926979482505154e-01 -6.080609043292223e-01 -3.278096180859021e-02 -2.316553891275066e-01  2.845765027827756e-01  6.242686320317476e-02
14 3 2  1.793743832697212e-01 -5.886369049917304e-02  1.020588498365982e+00 0 0 0  5.500858486395305e-02 -3.729579814703416e-01 -7.064662695671169e-02  4.848917717099949e-02  6.335341485731393e-01 -7.720947114935640e-01  1.237088406934730e-02 -8.974208252844727e-02  5.944615924022870e-02  2.212922489708867e-01
15 3 3  4.493556544098306e-01 -2.356149586378197e-01  5.958942523019830e-01 0 0 0 -1.953938333804206e-01  2.346469278103372e-01  2.384595317337037e-02 -5.968009796808262e-02 -3.392719921963895e-01  9.387312045352587e-01  1.079476027503090e-02 -2.025452452210277e-01  3.390648061433659e-02 -2.678056303889743e-01
16 3 4  5.058657347592423e-01 -5.573670264889179e-01  1.651747711375452e-01 0 0 0 -1.878814237253088e-01 -7.961691664779640e-02 -3.552475365037532e-02 -8.205630111903540e-02 -1.365153805962792e-04  9.942807307770023e-01 -6.835622294834269e-02  2.041036852487057e-02 -3.164695478783836e-01  1.086399442951426e-01
ITEM: TIMESTEP
2000
ITEM: NUMBER OF ATOMS
16
ITEM: BOX BOUNDS pp pp pp
-2.0000000000000000e+01 2.0000000000000000e+01
-2.0000000000000000e+01 2.0000000000000000e+01
-2.0000000000000000e+01 2.0000000000000000e+01
ITEM: ATOMS id mol type x y z ix iy iz vx vy vz c_quat[1] c_quat[2] c_quat[3] c_quat[4] angmomx angmomy angmomz
1 1 1 -6.124549454363868e-01 -6.571293641240702e-01  3.651512106437300e-01 0 0 0  3.537500654533875e-02  1.229746626984202e-02  1.992530411163818e-01  9.963567315271074e-01 -4.834003732256787e-02  6.383018506404964e-03 -6.996971778576445e-02  2.145174725278718e-01 -1.930174554942149e-01 -2.548390677170226e-01
2 1 2 -4.536090623690596e-01 -9.977416569754881e-01  7.218039551418981e-01 0 0 0 -5.814318285183155e-02  2.613785441705089e-01 -2.133961575258965e-01  9.369390436404837e-01  1.102180539898093e-01  6.601785968200152e-02  3.250213089626013e-01 -8.515756221761282e-02 -5.851540829062887e-02  4.934861797274477e-02
3 1 3 -1.030835416032669e-01 -1.242260261448175e+00  1.069115989154706e+00 0 0 0 -2.169797472881917e-01 -1.121714667608705e-01  2.591723177459464e-02  8.002134688499427e-01  1.448000839958608e-01  1.808815815793882e-01  5.531484370322967e-01  1.138423238934596e-01 -1.389057769292233e-01 -1.581299161743019e-01
4 1 4  2.890603044405537e-01 -1.268819122374904e+00  1.426228158575638e+00 0 0 0 -2.315258754513969e-01 -5.211850291558215e-01  2.240069861996052e-03  5.598455576338974e-01  1.486278937337935e-01  1.070930161500956e-01  8.080926844698708e-01 -2.261809016745669e-01  2.637050438214130e-01  3.378070299860089e-01
5 1 1  6.257302819043249e-01 -1.023100383238229e+00  1.766142638355577e+00 0 0 0 -1.350805402968254e-01 -2.466028467546414e-01 -1.418416863437812e-01  2.502793299949635e-01  1.187841527503484e-01  8.405622906603870e-02  9.571756016467677e-01  7.661573246293922e-02 -8.559550595753254e-02  1.382757908372199e-01
6 1 2  7.895661892455657e-01 -6.729188527078411e-01  2.157235436999716e+00 0 0 0 -1.331705509951376e-02  1.778602690670145e-01  1.790705910858406e-01 -4.108266784999009e-02  7.203474948819703e-02  2.101028579479244e-02  9.963341694227501e-01  8.425124239356499e-02 -4.672627042755971e-01  1.359179534752285e-01
7 1 3  7.127655877816849e-01 -4.024232184395429e-01  2.567203388623214e+00 0 0 0  6.869353436365290e-02 -7.965671530112271e-03 -9.290876509705427e-02 -4.534014221146571e-01  1.055803966962462e-01 -6.388934292238570e-02  8.827219732842362e-01  2.985486909652079e-01  4.321625808578125e-01 -1.304465796050679e-01
8 1 4  4.773643596804499e-01 -3.034625568694870e-01  3.070029249258829e+00 0 0 0  3.845455159629926e-01 -4.492703587146062e-02  1.598835408769798e-01  7.659093310979889e-01 -1.023033798902648e-02  3.856979858184209e-02 -6.417091298703937e-01  1.397914392370059e-02  9.494802740374045e-02 -1.508889414617536e-01
9 2 1  4.065069643604317e-01 -1.443100604710568e+00  3.058856020514776e+00 0 0 0  4.060251446877451e-02  2.621728428255638e-02 -3.377911951264126e-02 -2.326092685730784e-01  6.862238825415609e-01  6.772864630016137e-01 -1.275647217621213e-01 -2.173526847466820e-02 -2.291875951662986e-03  1.568013141879754e-01
10 2 2 -2.826163438778595e-02 -1.292554536817385e+00  2.719239721805614e+00 0 0 0  1.814435887591750e-01  1.087278316303611e-01 -4.658324209900472e-02 -2.393882018320961e-01  8.794855927385864e-01  3.899534355791748e-01 -1.308995762745313e-01 -2.337307930198711e-01 -4.397139299982388e-01 -2.539727685409932e-01
11 2 3 -3.236265385978395e-01 -9.120229588093413e-01  2.419422298596856e+00 0 0 0 -3.952076009244825e-01 -1.713871947971694e-01  3.239253009214705e-01 -7.749662374031457e-02  9.791278294464105e-01  1.465162751492395e-01 -1.176263067039223e-01 -3.585543084130553e-01 -4.454634073548749e-01  5.787455954513895e-02
12 2 4 -3.919244121079501e-01 -4.822293318770491e-01  2.006677366808208e+00 0 0 0 -1.337352131116878e-01  2.182899119032095e-01  4.006363637770750e-02 -2.489936705141405e-02  9.639872486333979e-01 -2.425819398699448e-01 -1.061254372974977e-01 -2.691684452667113e-01  8.994418094988876e-02  1.132373912437939e-01
13 3 1 -6.516155599758640e-02 -7.424329126846520e-02  1.561578391552930e+00 0 0 0 -1.392603823612368e-01 -1.531463446755558e-01  9.124426024360842e-02 -2.455309062500688e-02  7.931012189769919e-01 -6.076493783495959e-01 -3.390921982764642e-02 -2.048999119299499e-01  2.939465904760784e-01  6.542926390004537e-02
14 3 2  1.799383965349860e-01 -6.262194621008683e-02  1.019860217327015e+00 0 0 0  5.766591040392752e-02 -3.784772588351898e-01 -7.498448952298538e-02  4.948435215411488e-02  6.354792538201319e-01 -7.704250509665909e-01  1.275373275640532e-02 -5.851738830886380e-02  5.040207290321883e-02  2.251284828683641e-01
15 3 3  4.474384994127010e-01 -2.332665045480362e-01  5.962028194165216e-01 0 0 0 -1.879309791170417e-01  2.348707633879283e-01  3.747369576779155e-02 -6.092877282542072e-02 -3.362380926055207e-01  9.397629324332200e-01  8.789797921730926e-03 -2.316485337567858e-01  4.618849866527604e-02 -2.653994391757057e-01
16 3 4  5.040059944020490e-01 -5.581504898838391e-01  1.648783774377471e-01 0 0 0 -1.841334563123485e-01 -7.687349876166907e-02 -2.372152258363095e-02 -7.843223016952666e-02 -1.143445049723816e-03  9.945824607193186e-01 -6.821148461628866e-02  2.254882039305772e-02 -3.029456546062291e-01  1.063040275424684e-01
ITEM: TIMESTEP
3000
ITEM: NUMBER OF ATOMS
16
ITEM: BOX BOUNDS pp pp pp
-2.0000000000000000e+01 2.0000000000000000e+01
-2.0000000000000000e+01 2.0000000000000000e+01
-2.0000000000000000e+01 2.0000000000000000e+01
ITEM: ATOMS id mol type x y z ix iy iz vx vy vz c_quat[1] c_quat[2] c_quat[3] c_quat[4] angmomx angmomy angmomz
1 1 1 -6.121476131195513e-01 -6.570308799240213e-01  3.670016339437280e-01 0 0 0  2.607280703734119e-02  7.467856753416099e-03  1.703724141377850e-01  9.962799406190107e-01 -4.562701056823858e-02  4.802061531714018e-03 -7.294789943399475e-02  2.328239761073542e-01 -1.389465175772167e-01 -2.523788203322677e-01
2 1 2 -4.542342926615202e-01 -9.951614691132755e-01  7.196477334849906e-01 0 0 0 -6.681505800763733e-02  2.543386647452177e-01 -2.167903825630893e-01  9.369065227688762e-01  1.089723523041880e-01  6.593137814995174e-02  3.255522191625692e-01 -1.054872506175290e-01 -3.693105402694686e-02  5.138535408280417e-02
3 1 3 -1.052755170544889e-01 -1.243321561688962e+00  1.069588163475250e+00 0 0 0 -2.214140076131176e-01 -1.000792048992034e-01  6.832551523819903e-02  8.013020886396074e-01  1.455146649694676e-01  1.782096674856719e-01  5.522515363810885e-01  1.868403045262858e-01 -1.760597612203400e-01 -1.611529952732209e-01
4 1 4  2.867700960618260e-01 -1.273920887716921e+00  1.426186215326566e+00 0 0 0 -2.264019134909271e-01 -4.990190860200354e-01 -1.032342378238518e-02  5.568069629340358e-01  1.490778006126892e-01  1.115419567189118e-01  8.095061502446880e-01 -2.500274424204255e-01  2.532909844727934e-01  3.335051480560539e-01
5 1 1  6.244409892321088e-01 -1.025598962256539e+00  1.764726997764298e+00 0 0 0 -1.228982092954094e-01 -2.527945350373972e-01 -1.408171499787882e-01  2.487216197930950e-01  1.179817246862711e-01  8.314996777052457e-02  9.577598610023876e-01  8.029737588272594e-02 -7.632138077665905e-02  1.396363080921216e-01
6 1 2  7.895011474770542e-01 -6.711898707522456e-01  2.159134121573725e+00 0 0 0 -4.001329673194066e-05  1.676406277561776e-01  2.010693338564885e-01 -4.271454468454095e-02  6.696347262089937e-02  2.040779049440552e-02  9.966317690571974e-01  7.773738909084438e-02 -4.044877072608406e-01  1.557313806343077e-01
7 1 3  7.135044794115253e-01 -4.024236112453672e-01  2.566408034133626e+00 0 0 0  7.922527782481090e-02  7.958764166619800e-03 -6.599091624592460e-02 -4.521273204394629e-01  1.083996816564656e-01 -6.919259286513853e-02  8.826340012834354e-01  2.711941372219362e-01  4.352480533430199e-01 -1.241083062014663e-01
8 1 4  4.812223314615542e-01 -3.038991095555735e-01  3.071618038454980e+00 0 0 0  3.869646035253499e-01 -4.234283633033593e-02  1.578006480912950e-01  7.647053371981368e-01 -1.083012034491922e-02  3.951382579347409e-02 -6.430762888842675e-01  3.614656951272494e-04  1.036265307952104e-01 -1.636291508179199e-01
9 2 1  4.068935321525021e-01 -1.442876290105588e+00  3.058404763033477e+00 0 0 0  3.676653765507473e-02  1.863407820772802e-02 -5.641372792424469e-02 -2.320809484602819e-01  6.851064188474059e-01  6.784728803097305e-01 -1.282270599369612e-01 -4.770130595254295e-02 -4.213393301327192e-03  1.549598969636549e-01
10 2 2 -2.649060438818597e-02 -1.291475269246744e+00  2.718756455230299e+00 0 0 0  1.724959892951038e-01  1.070422782422380e-01 -5.007551570042647e-02 -2.352703457075436e-01  8.818806429809675e-01  3.883431947583370e-01 -1.269801521932337e-01 -2.672821431912354e-01 -4.268323729348376e-01 -2.242137732676661e-01
11 2 3 -3.276668717005913e-01 -9.136833099018586e-01  2.422525507903901e+00 0 0 0 -4.123704506106089e-01 -1.604488176001770e-01  2.958920604754204e-01 -7.269822289415220e-02  9.799212237046697e-01  1.469630866806077e-01 -1.134513766971688e-01 -3.544996689508003e-01 -4.096244327695157e-01  3.995324975521401e-02
12 2 4 -3.932937802027042e-01 -4.800727131186058e-01  2.007147325923468e+00 0 0 0 -1.399852719574556e-01  2.126932736857181e-01  5.368569079681526e-02 -2.157700204584679e-02  9.642720111385470e-01 -2.416507493595352e-01 -1.063900223306252e-01 -2.609947512804833e-01  8.575443997642267e-02  1.173777024139279e-01
13 3 1 -6.654480052845516e-02 -7.587118113265251e-02  1.562373490969740e+00 0 0 0 -1.374921264437571e-01 -1.724636863241620e-01  6.751787444213600e-02 -2.070754945467144e-02  7.934954859386983e-01 -6.071972907806206e-01 -3.532083321732050e-02 -1.752806429039406e-01  3.034606805872680e-01  6.718233387102232e-02
14 3 2  1.805252446398633e-01 -6.642901141222357e-02  1.019089865059427e+00 0 0 0  5.958597732297895e-02 -3.827286192321590e-01 -7.900278757499798e-02  5.016943092661984e-02  6.374643155576114e-01 -7.687361101615102e-01  1.292546033670144e-02 -2.693404887457123e-02  4.149939874434423e-02  2.276470068626278e-01
15 3 3  4.455989070949700e-01 -2.309211042923860e-01  5.966349770055684e-01 0 0 0 -1.799063843658072e-01  2.340260201682589e-01  4.847877257390939e-02 -6.239491664953675e-02 -3.332147738550333e-01  9.407614715474675e-01  6.530123496543985e-03 -2.566560860468502e-01  5.478674596080738e-02 -2.610983569037281e-01
16 3 4  5.021817597638589e-01 -5.589007916038513e-01  1.647004807833282e-01 0 0 0 -1.807757198898997e-01 -7.301905471297440e-02 -1.187202050081512e-02 -7.496852134255473e-02 -2.123538037897122e-03  9.948594688299023e-01 -6.804299136132333e-02  2.384975622078309e-02 -2.887564837391163e-01  1.018208302375676e-01
ITEM: TIMESTEP
4000
ITEM: NUMBER OF ATOMS
16
ITEM: BOX BOUNDS pp pp pp
-2.0000000000000000e+01 2.0000000000000000e+01
-2.0000000000000000e+01 2.0000000000000000e+01
-2.0000000000000000e+01 2.0000000000000000e+01
ITEM: ATOMS id mol type x y z ix iy iz vx vy vz c_quat[1] c_quat[2] c_quat[3] c_quat[4] angmomx angmomy angmomz
1 1 1 -6.119339109810196e-01 -6.569784921954559e-01  3.685494983324511e-01 0 0 0  1.665716935930123e-02  3.073693740845228e-03  1.387547965241004e-01  9.961933264132419e-01 -4.275115238972418e-02  3.863060825908091e-03 -7.587010043571886e-02  2.508698823158743e-01 -8.335830607917250e-02 -2.505200192046029e-01
2 1 2 -4.549432197943959e-01 -9.926611521099041e-01  7.174904543524065e-01 0 0 0 -7.484646958890014e-02  2.454217886653615e-01 -2.135033593998597e-01  9.368764937743201e-01  1.076060270124171e-01  6.610821390166015e-02  3.260568699145467e-01 -1.199767650651562e-01 -2.207610202639554e-02  5.127308989690428e-02
3 1 3 -1.075119134497294e-01 -1.244261690973903e+00  1.070477424120825e+00 0 0 0 -2.258751204269999e-01 -8.794288457101102e-02  1.092079830923625e-01  8.023496074862911e-01  1.466569110893663e-01  1.747404197279732e-01  5.515366202797525e-01  2.565983668241658e-01 -2.122814932243340e-01 -1.621901104177772e-01
4 1 4  2.845345134965683e-01 -1.278796728654044e+00  1.426028016633780e+00 0 0 0 -2.206039757148517e-01 -4.760196940632758e-01 -2.098930492163247e-02  5.538576507073183e-01  1.492999836401830e-01  1.161115102891980e-01  8.108448278285882e-01 -2.689721078122584e-01  2.435300964601607e-01  3.255259988801666e-01
5 1 1  6.232696726079164e-01 -1.028149690426705e+00  1.763335590794063e+00 0 0 0 -1.115078938075756e-01 -2.570126726460997e-01 -1.370073422261844e-01  2.471351697412933e-01  1.173092664904877e-01  8.223160185270353e-02  9.583322532030029e-01  8.466151479204301e-02 -6.382104443657882e-02  1.404087477724889e-01
6 1 2  7.895590015294267e-01 -6.695714421369071e-01  2.161262631922261e+00 0 0 0  1.131857437903444e-02  1.557987170862902e-01  2.248187890459839e-01 -4.457314041167551e-02  6.264667740610612e-02  1.986976489699349e-02  9.968419239813074e-01  6.983193673101019e-02 -3.354102478123266e-01  1.739309231255396e-01
7 1 3  7.143523643099791e-01 -4.022626171319296e-01  2.565886235001906e+00 0 0 0  9.043902740280216e-02  2.431167552742424e-02 -3.827247758756234e-02 -4.508736654365971e-01  1.113917069362003e-01 -7.421501342203156e-02  8.824947349556115e-01  2.429137317713226e-01  4.372528007146432e-01 -1.159706881129566e-01
8 1 4  4.851019176766462e-01 -3.043084946772285e-01  3.073183820329763e+00 0 0 0  3.888636879611151e-01 -3.948324364207383e-02  1.552845838586137e-01  7.633953759600755e-01 -1.160420532367071e-02  4.044045041731178e-02 -6.445598594014571e-01 -1.215961299148821e-02  1.126494161331201e-01 -1.770236698051723e-01
9 2 1  4.072434987812436e-01 -1.442728204116274e+00  3.057729151475014e+00 0 0 0  3.329144996072663e-02  1.096675276400980e-02 -7.862625016168234e-02 -2.313382042148208e-01  6.840779708299936e-01  6.796048321116345e-01 -1.290629197961118e-01 -7.258382719897764e-02 -6.709811225410375e-03  1.515868584408938e-01
10 2 2 -2.481664424343302e-02 -1.290415492920524e+00  2.718238601636673e+00 0 0 0  1.620688544158550e-01  1.048157257277226e-01 -5.345164331939451e-02 -2.308181900535656e-01  8.841724970288489e-01  3.869447462535106e-01 -1.234330668215472e-01 -3.012240082752742e-01 -4.116348943162253e-01 -1.919673538539370e-01
11 2 3 -3.318646628752095e-01 -9.152277473584496e-01  2.425326001671519e+00 0 0 0 -4.267456493292557e-01 -1.482520937904217e-01  2.636096520880635e-01 -6.802705982159217e-02  9.806527958552940e-01  1.471751258542558e-01 -1.096899970052366e-01 -3.512141846382695e-01 -3.677949495331602e-01  2.210205483825942e-02
12 2 4 -3.947208697023985e-01 -4.779823704527080e-01  2.007745836772746e+00 0 0 0 -1.452625890588076e-01  2.050265853151083e-01  6.573800543257302e-02 -1.835630583324887e-02  9.645570969861619e-01 -2.406658056239176e-01 -1.066424994698401e-01 -2.516098993429897e-01  8.346335538705429e-02  1.203257172133339e-01
13 3 1 -6.791343185348354e-02 -7.769294240905447e-02  1.562924259921019e+00 0 0 0 -1.363331266849799e-01 -1.918948827419156e-01  4.244572576912164e-02 -1.707539775598612e-02  7.938735067446880e-01 -6.067139193841138e-01 -3.703385081157076e-02 -1.434282235241408e-01  3.129875508060714e-01  6.783173896991371e-02
14 3 2  1.811278613307028e-01 -7.027243332795437e-02  1.018282534155410e+00 0 0 0  6.082968074118016e-02 -3.857534922987337e-01 -8.230522614185527e-02  5.054611958489617e-02  6.394778846967102e-01 -7.670378861998814e-01  1.288432818382088e-02  4.278184683930694e-03  3.293354677156319e-02  2.287984499462964e-01
15 3 3  4.438417434668189e-01 -2.285897663087472e-01  5.971620647642761e-01 0 0 0 -1.714702907460768e-01  2.320461271905027e-01  5.638829743676770e-02 -6.401711002004996e-02 -3.302253703987577e-01  9.417200437658435e-01  4.046423030517588e-03 -2.768713564950840e-01  5.904353402626068e-02 -2.549149432606057e-01
16 3 4  5.003892077170293e-01 -5.596077006313347e-01  1.646402460356638e-01 0 0 0 -1.778112911732637e-01 -6.819637869480667e-02 -2.358441480402060e-04 -7.167223239193672e-02 -3.053357942173414e-03  9.951125779223264e-01 -6.785812677944394e-02  2.439302470319467e-02 -2.742983883869139e-01  9.541961234711352e-02
ITEM: TIMESTEP
5000
ITEM: NUMBER OF ATOMS
16
ITEM: BOX BOUNDS pp pp pp
-2.0000000000000000e+01 2.0000000000000000e+01
-2.0000000000000000e+01 2.0000000000000000e+01
-2.0000000000000000e+01 2.0000000000000000e+01
ITEM: ATOMS id mol type x y z ix iy iz vx vy vz c_quat[1] c_quat[2] c_quat[3] c_quat[4] angmomx angmomy angmomz
1 1 1 -6.118148285739899e-01 -6.569679227580209e-01  3.697678322987690e-01 0 0 0  7.130597649853088e-03 -8.713817193184110e-04  1.044689307584059e-01  9.960967685878402e-01 -3.971877334089103e-02  3.582552663130416e-03 -7.874523458326722e-02  2.686250846914267e-01 -2.645235640539326e-02 -2.492924395882190e-01
2 1 2 -4.557285003427932e-01 -9.902587726166127e-01  7.154014674428317e-01 0 0 0 -8.206476972167320e-02  2.347868288063702e-01 -2.030901194993691e-01  9.368544720842028e-01  1.061605457630429e-01  6.644637842052398e-02  3.265249078614362e-01 -1.280574880856031e-01 -1.459233178279652e-02  4.889177741729574e-02
3 1 3 -1.097933088698338e-01 -1.245080493466477e+00  1.071764532587138e+00 0 0 0 -2.304228619174080e-01 -7.583111962930122e-02  1.477486428810896e-01  8.033393946363908e-01  1.481932143097260e-01  1.705122974382818e-01  5.510082981953247e-01  3.216121100411159e-01 -2.471428633813239e-01 -1.608514782216899e-01
4 1 4  2.823601890431920e-01 -1.283438857880931e+00  1.425773181012778e+00 0 0 0 -2.141544057310963e-01 -4.522924961069850e-01 -2.962946698033133e-02  5.510229759346287e-01  1.493387460362917e-01  1.207533362404793e-01  8.120900508633555e-01 -2.827443749639081e-01  2.344947299082494e-01  3.139026108581149e-01
5 1 1  6.222078103263472e-01 -1.030732310325088e+00  1.761995732272682e+00 0 0 0 -1.010224458835518e-01 -2.591608528204996e-01 -1.305363110948894e-01  2.455233252116901e-01  1.168034400441201e-01  8.130203005757235e-02  9.588874976134437e-01  8.958068303129008e-02 -4.834525749835245e-02  1.405108951699989e-01
6 1 2  7.897221313972429e-01 -6.680784038006474e-01  2.163632427259121e+00 0 0 0  2.105775572273251e-02  1.426028204335018e-01  2.491576835254716e-01 -4.663937684383187e-02  5.914616331035932e-02  1.940450951214137e-02  9.969703931932367e-01  6.080119207441267e-02 -2.621029091191217e-01  1.903488891054153e-01
7 1 3  7.153145075492775e-01 -4.019359230398518e-01  2.565643808143433e+00 0 0 0  1.020279536234861e-01  4.110136961775768e-02 -1.018613863677618e-02 -4.496562643093872e-01  1.145482076369622e-01 -7.894134134148921e-02  8.823016585735814e-01  2.142935643440490e-01  4.377869881372665e-01 -1.065339957429773e-01
8 1 4  4.889977881434627e-01 -3.046876644854044e-01  3.074722307655465e+00 0 0 0  3.902178912695235e-01 -3.629097890368783e-02  1.523411464468086e-01  7.619733462593208e-01 -1.254460342649158e-02  4.136085355672751e-02 -6.461644777518369e-01 -2.349941060428395e-02  1.220009119447282e-01 -1.911108302358331e-01
9 2 1  4.075607368641164e-01 -1.442657323138697e+00  3.056834139140097e+00 0 0 0  3.022881431679926e-02  3.189203930303753e-03 -1.002679917885023e-01 -2.303882440297329e-01  6.831479452653941e-01  6.806731031214708e-01 -1.300548675734749e-01 -9.620342416765611e-02 -9.787504925279054e-03  1.466743358122455e-01
10 2 2 -2.325340560334210e-02 -1.289381054099611e+00  2.717688751654119e+00 0 0 0  1.503875771582640e-01  1.019591734898522e-01 -5.642955459649586e-02 -2.260370511667255e-01  8.863491327547421e-01  3.857774823163697e-01 -1.202838330882859e-01 -3.350342779624866e-01 -3.946568768371378e-01 -1.579340710460110e-01