LAMMPS data file via write_data, version 27 Jun 2024, timestep = 10000, units = lj

2 atoms
1 atom types
2 ellipsoids

-2 2 xlo xhi
-2 2 ylo yhi
-4 4 zlo zhi

Atoms # ellipsoid/kk

1 1 1 238.7324039657 0 0 -3.0000000000010436 0 0 13
2 1 1 238.7324039657 0 0 2.9999999999990004 0 0 12

Velocities

1 0 0 10 0 0 0
2 0 0 10 0 0 0

Ellipsoids

1 0.5 0.5 1 1 0 0 0
2 0.5 1 0.5 0.9237852583388739 0.3829109511045357 0 0
