LAMMPS data file via write_data, version 2 Aug 2023, timestep = 250000, units = lj

10 atoms
1 atom types
9 bonds
1 bond types

-5 5 xlo xhi
-5 5 ylo yhi
-5 5 zlo zhi

Masses

1 1

Atoms # hybrid/kk

4 1 -4.995967071892835 -3.4974820556425814 -2.848273799897231 1 1 238.7324039657 1 0 0
2 1 -4.653933374637001 -2.9516360516709415 -4.241578243253813 1 1 238.7324039657 1 0 0
3 1 4.405932202524066 -3.2744784042340376 -3.4982256567417913 1 1 238.7324039657 0 0 0
1 1 4.535054201651742 -2.3462464353075836 -4.621634854812741 1 1 238.7324039657 0 0 0
5 1 -4.145790699538129 -3.422308729579642 -2.3216461237317145 1 1 238.7324039657 1 0 0
6 1 -4.328663969270521 -2.4894234171282643 -1.9584588762618338 1 1 238.7324039657 1 0 0
8 1 -3.437890521612804 -2.2124996328850015 -0.2717536707785769 1 1 238.7324039657 1 0 0
7 1 -3.7666707365711227 -1.9326579023208805 -1.180893552766339 1 1 238.7324039657 1 0 0
9 1 -4.328216598203263 -2.493403533768334 0.2318839223225409 1 1 238.7324039657 1 0 0
10 1 -4.964689772050585 -2.449665831962686 0.8122130179219403 1 1 238.7324039657 1 0 0

Velocities

4 0.016483789802398455 -0.040824303739938575 0.16654750977464036 0 0 0
2 -0.09842809615737601 -0.16100947127060775 -0.08119853190636032 0 0 0
3 0.0016054201613296543 0.10092928034952436 -0.05493494495279528 0 0 0
1 0.13044732811331772 0.06544199682567804 -0.14576433231374272 0 0 0
5 -0.11551812894212884 0.20102445221284354 0.10890162081412283 0 0 0
6 0.13023269451963052 0.055674958173426575 -0.05425183888287487 0 0 0
8 -0.20008029872062472 0.22987030540988132 0.02595812268335214 0 0 0
7 -0.31889526398675094 -0.3654462015930123 0.20483788604046402 0 0 0
9 0.4649453091131374 -0.0775241268971313 -0.17530423281226848 0 0 0
10 -0.010792753902988233 -0.008136889470661348 0.005208741555485449 0 0 0

Bonds

1 1 4 5
2 1 2 3
3 1 3 4
4 1 1 2
5 1 5 6
6 1 6 7
7 1 8 9
8 1 7 8
9 1 9 10
