ITEM: TIMESTEP
0
ITEM: NUMBER OF ATOMS
10
ITEM: BOX BOUNDS pp pp pp
-5.0000000000000000e+00 5.0000000000000000e+00
-5.0000000000000000e+00 5.0000000000000000e+00
-5.0000000000000000e+00 5.0000000000000000e+00
ITEM: ATOMS id type xs ys zs
5 1 0.026597 0.208274 0.233243
3 1 0.912598 0.176133 0.0554377
4 1 0.967486 0.196604 0.140428
6 1 0.0499113 0.234327 0.327808
7 1 0.130317 0.27012 0.438206
8 1 0.191668 0.282796 0.550266
9 1 0.197125 0.300606 0.679339
1 1 0.867207 0.138052 0.854948
2 1 0.885923 0.155283 0.959649
10 1 0.203083 0.330823 0.770839
ITEM: TIMESTEP
1000
ITEM: NUMBER OF ATOMS
10
ITEM: BOX BOUNDS pp pp pp
-5.0000000000000000e+00 5.0000000000000000e+00
-5.0000000000000000e+00 5.0000000000000000e+00
-5.0000000000000000e+00 5.0000000000000000e+00
ITEM: ATOMS id type xs ys zs
5 1 0.0264915 0.208279 0.233147
3 1 0.912649 0.176138 0.0554446
4 1 0.967534 0.196599 0.140504
6 1 0.0503151 0.234488 0.328287
7 1 0.130093 0.269971 0.437991
8 1 0.191481 0.282817 0.550348
9 1 0.197106 0.300544 0.678883
1 1 0.867246 0.138088 0.855162
2 1 0.88592 0.155275 0.959562
10 1 0.203082 0.330822 0.770835
ITEM: TIMESTEP
2000
ITEM: NUMBER OF ATOMS
10
ITEM: BOX BOUNDS pp pp pp
-5.0000000000000000e+00 5.0000000000000000e+00
-5.0000000000000000e+00 5.0000000000000000e+00
-5.0000000000000000e+00 5.0000000000000000e+00
ITEM: ATOMS id type xs ys zs
5 1 0.0261847 0.2083 0.232887
3 1 0.912802 0.176151 0.055463
4 1 0.967673 0.196581 0.140728
6 1 0.0514753 0.234944 0.329643
7 1 0.129466 0.269545 0.437413
8 1 0.190915 0.282874 0.550566
9 1 0.197049 0.30037 0.677563
1 1 0.867359 0.138192 0.855797
2 1 0.885913 0.155254 0.95931
10 1 0.20308 0.330808 0.770794
ITEM: TIMESTEP
3000
ITEM: NUMBER OF ATOMS
10
ITEM: BOX BOUNDS pp pp pp
-5.0000000000000000e+00 5.0000000000000000e+00
-5.0000000000000000e+00 5.0000000000000000e+00
-5.0000000000000000e+00 5.0000000000000000e+00
ITEM: ATOMS id type xs ys zs
5 1 0.025702 0.208356 0.232532
3 1 0.913055 0.176172 0.055487
4 1 0.967893 0.196549 0.141084
6 1 0.0532675 0.235631 0.331673
7 1 0.128552 0.268895 0.436636
8 1 0.189964 0.282957 0.550851
9 1 0.196958 0.300113 0.675497
1 1 0.867545 0.138363 0.856833
2 1 0.885909 0.155225 0.958924
10 1 0.20307 0.330759 0.770645
ITEM: TIMESTEP
4000
ITEM: NUMBER OF ATOMS
10
ITEM: BOX BOUNDS pp pp pp
-5.0000000000000000e+00 5.0000000000000000e+00
-5.0000000000000000e+00 5.0000000000000000e+00
-5.0000000000000000e+00 5.0000000000000000e+00
ITEM: ATOMS id type xs ys zs
5 1 0.0250799 0.208467 0.232171
3 1 0.913407 0.176197 0.0555081
4 1 0.968182 0.196501 0.141552
6 1 0.0555465 0.236475 0.334148
7 1 0.127485 0.268083 0.435849
8 1 0.188618 0.283046 0.551107
9 1 0.196835 0.299812 0.672842
1 1 0.867796 0.138594 0.858235
2 1 0.885919 0.155197 0.958455
10 1 0.203048 0.330647 0.770297
ITEM: TIMESTEP
5000
ITEM: NUMBER OF ATOMS
10
ITEM: BOX BOUNDS pp pp pp
-5.0000000000000000e+00 5.0000000000000000e+00
-5.0000000000000000e+00 5.0000000000000000e+00
-5.0000000000000000e+00 5.0000000000000000e+00
ITEM: ATOMS id type xs ys zs
5 1 0.0243611 0.208653 0.231892
3 1 0.913858 0.176226 0.0555174
4 1 0.96852 0.196435 0.142101
6 1 0.0581786 0.237409 0.336861
7 1 0.126377 0.267167 0.435217
8 1 0.186871 0.283125 0.551233
9 1 0.196682 0.299501 0.66975
1 1 0.868104 0.138877 0.859949
2 1 0.885957 0.155181 0.957973
10 1 0.203007 0.330446 0.769669
ITEM: TIMESTEP
6000
ITEM: NUMBER OF ATOMS
10
ITEM: BOX BOUNDS pp pp pp
-5.0000000000000000e+00 5.0000000000000000e+00
-5.0000000000000000e+00 5.0000000000000000e+00
-5.0000000000000000e+00 5.0000000000000000e+00
ITEM: ATOMS id type xs ys zs
5 1 0.0235914 0.208933 0.231778
3 1 0.914406 0.176256 0.0555077
4 1 0.968886 0.196346 0.142701
6 1 0.0610505 0.23838 0.339646
7 1 0.125316 0.266193 0.434866
8 1 0.184728 0.283174 0.551146
9 1 0.196497 0.299208 0.666359
1 1 0.868454 0.139198 0.861895
2 1 0.886043 0.155196 0.957574
10 1 0.202945 0.330136 0.768689
ITEM: TIMESTEP
7000
ITEM: NUMBER OF ATOMS
10
ITEM: BOX BOUNDS pp pp pp
-5.0000000000000000e+00 5.0000000000000000e+00
-5.0000000000000000e+00 5.0000000000000000e+00
-5.0000000000000000e+00 5.0000000000000000e+00
ITEM: ATOMS id type xs ys zs
5 1 0.0228199 0.209321 0.231907
3 1 0.915051 0.176286 0.0554757
4 1 0.969259 0.196233 0.143318
6 1 0.0640658 0.239344 0.342369
7 1 0.124354 0.265197 0.434873
8 1 0.182204 0.283181 0.55079
9 1 0.196278 0.298956 0.66278
1 1 0.868827 0.13954 0.863967
2 1 0.886201 0.15526 0.95738
10 1 0.202857 0.329703 0.767302
ITEM: TIMESTEP
8000
ITEM: NUMBER OF ATOMS
10
ITEM: BOX BOUNDS pp pp pp
-5.0000000000000000e+00 5.0000000000000000e+00
-5.0000000000000000e+00 5.0000000000000000e+00
-5.0000000000000000e+00 5.0000000000000000e+00
ITEM: ATOMS id type xs ys zs
5 1 0.0220997 0.209835 0.23236
3 1 0.915791 0.176316 0.055424
4 1 0.969621 0.196092 0.143923
6 1 0.0671369 0.240261 0.34491
7 1 0.123519 0.264207 0.435271
8 1 0.179332 0.283134 0.550144
9 1 0.196017 0.298759 0.659105
1 1 0.869197 0.13988 0.866024
2 1 0.886462 0.155398 0.957537
10 1 0.20274 0.329137 0.765465
ITEM: TIMESTEP
9000
ITEM: NUMBER OF ATOMS
10
ITEM: BOX BOUNDS pp pp pp
-5.0000000000000000e+00 5.0000000000000000e+00
-5.0000000000000000e+00 5.0000000000000000e+00
-5.0000000000000000e+00 5.0000000000000000e+00
ITEM: ATOMS id type xs ys zs
5 1 0.0214844 0.210491 0.233215
3 1 0.91663 0.176347 0.055364
4 1 0.969958 0.195924 0.144494
6 1 0.0701742 0.241095 0.347147
7 1 0.122824 0.263243 0.436067
8 1 0.176153 0.28303 0.549211
9 1 0.195711 0.298627 0.655411
1 1 0.869535 0.140192 0.867912
2 1 0.886854 0.155637 0.958195
10 1 0.202593 0.328434 0.763146
ITEM: TIMESTEP
10000
ITEM: NUMBER OF ATOMS
10
ITEM: BOX BOUNDS pp pp pp
-5.0000000000000000e+00 5.0000000000000000e+00
-5.0000000000000000e+00 5.0000000000000000e+00
-5.0000000000000000e+00 5.0000000000000000e+00
ITEM: ATOMS id type xs ys zs
5 1 0.021022 0.211301 0.234532
3 1 0.91757 0.176383 0.0553195
4 1 0.970265 0.195731 0.145022
6 1 0.0730868 0.24181 0.348966
7 1 0.122275 0.262323 0.437259
8 1 0.172716 0.282866 0.54801
9 1 0.195352 0.298568 0.651763
1 1 0.869819 0.140454 0.869514
2 1 0.887398 0.155992 0.959456
10 1 0.202414 0.327592 0.760321
ITEM: TIMESTEP
11000
ITEM: NUMBER OF ATOMS
10
ITEM: BOX BOUNDS pp pp pp
-5.0000000000000000e+00 5.0000000000000000e+00
-5.0000000000000000e+00 5.0000000000000000e+00
-5.0000000000000000e+00 5.0000000000000000e+00
ITEM: ATOMS id type xs ys zs
5 1 0.0207485 0.21227 0.236337
3 1 0.918619 0.176433 0.0553308
4 1 0.970545 0.195518 0.145516
6 1 0.0757934 0.242378 0.35027
7 1 0.121871 0.261461 0.438831
8 1 0.169071 0.282643 0.546572
9 1 0.194936 0.298584 0.648211
1 1 0.87004 0.140661 0.8708
2 1 0.888091 0.156461 0.961313
10 1 0.202201 0.326611 0.756982
ITEM: TIMESTEP
12000
ITEM: NUMBER OF ATOMS
10
ITEM: BOX BOUNDS pp pp pp
-5.0000000000000000e+00 5.0000000000000000e+00
-5.0000000000000000e+00 5.0000000000000000e+00
-5.0000000000000000e+00 5.0000000000000000e+00
ITEM: ATOMS id type xs ys zs
5 1 0.020682 0.21339 0.238618
3 1 0.919791 0.176507 0.0554595
4 1 0.970812 0.195294 0.146001
6 1 0.0782357 0.242785 0.351008
7 1 0.1216 0.260662 0.440751
8 1 0.165268 0.282367 0.544935
9 1 0.194456 0.298671 0.644789
1 1 0.870213 0.140827 0.871843
2 1 0.888905 0.157019 0.963633
10 1 0.201954 0.325498 0.753126
ITEM: TIMESTEP
13000
ITEM: NUMBER OF ATOMS
10
ITEM: BOX BOUNDS pp pp pp
-5.0000000000000000e+00 5.0000000000000000e+00
-5.0000000000000000e+00 5.0000000000000000e+00
-5.0000000000000000e+00 5.0000000000000000e+00
ITEM: ATOMS id type xs ys zs
5 1 0.0208206 0.214644 0.241318
3 1 0.921108 0.176622 0.0557918
4 1 0.971086 0.195072 0.146514
6 1 0.0803877 0.243034 0.351192
7 1 0.121435 0.259925 0.44296
8 1 0.161354 0.282042 0.543144
9 1 0.193904 0.298825 0.641508
1 1 0.870364 0.140972 0.872775
2 1 0.889785 0.157625 0.966196
10 1 0.201671 0.324259 0.748764
ITEM: TIMESTEP
14000
ITEM: NUMBER OF ATOMS
10
ITEM: BOX BOUNDS pp pp pp
-5.0000000000000000e+00 5.0000000000000000e+00
-5.0000000000000000e+00 5.0000000000000000e+00
-5.0000000000000000e+00 5.0000000000000000e+00
ITEM: ATOMS id type xs ys zs
5 1 0.0211449 0.216004 0.244348
3 1 0.922599 0.176801 0.0564329
4 1 0.971392 0.194866 0.147104
6 1 0.0822553 0.243139 0.350896
7 1 0.121334 0.25924 0.445357
8 1 0.15738 0.281679 0.541263
9 1 0.193272 0.299033 0.638358
1 1 0.870519 0.141122 0.873728
2 1 0.890667 0.158231 0.968757
10 1 0.201354 0.322906 0.743921
ITEM: TIMESTEP
15000
ITEM: NUMBER OF ATOMS
10
ITEM: BOX BOUNDS pp pp pp
-5.0000000000000000e+00 5.0000000000000000e+00
-5.0000000000000000e+00 5.0000000000000000e+00
-5.0000000000000000e+00 5.0000000000000000e+00
ITEM: ATOMS id type xs ys zs
5 1 0.021624 0.217437 0.247599
3 1 0.924295 0.177062 0.0574848
4 1 0.971758 0.194696 0.147827
6 1 0.0838649 0.243125 0.350235
7 1 0.121233 0.258581 0.447786
8 1 0.153407 0.281301 0.539392
9 1 0.192545 0.299279 0.635305
1 1 0.870701 0.141294 0.874808
2 1 0.891486 0.158793 0.971094
10 1 0.201003 0.321453 0.738633
ITEM: TIMESTEP
16000
ITEM: NUMBER OF ATOMS
10
ITEM: BOX BOUNDS pp pp pp
-5.0000000000000000e+00 5.0000000000000000e+00
-5.0000000000000000e+00 5.0000000000000000e+00
-5.0000000000000000e+00 5.0000000000000000e+00
ITEM: ATOMS id type xs ys zs
5 1 0.0222237 0.218909 0.250965
3 1 0.926209 0.177417 0.0590015
4 1 0.972213 0.194579 0.148745
6 1 0.0852496 0.243019 0.349335
7 1 0.121053 0.257905 0.450017
8 1 0.149517 0.280947 0.537704
9 1 0.191708 0.299544 0.632295
1 1 0.870925 0.141501 0.876081
2 1 0.892198 0.159284 0.973064
10 1 0.200619 0.319915 0.732956
ITEM: TIMESTEP
17000
ITEM: NUMBER OF ATOMS
10
ITEM: BOX BOUNDS pp pp pp
-5.0000000000000000e+00 5.0000000000000000e+00
-5.0000000000000000e+00 5.0000000000000000e+00
-5.0000000000000000e+00 5.0000000000000000e+00
ITEM: ATOMS id type xs ys zs
5 1 0.0229092 0.220388 0.254342
3 1 0.928324 0.177858 0.0609488
4 1 0.972791 0.194537 0.149927
6 1 0.0864406 0.242843 0.348317
7 1 0.120689 0.257135 0.451716
8 1 0.145817 0.280692 0.536477
9 1 0.190747 0.299805 0.629253
1 1 0.871199 0.141751 0.877582
2 1 0.892791 0.159696 0.974631
10 1 0.200209 0.318316 0.726971
ITEM: TIMESTEP
18000
ITEM: NUMBER OF ATOMS
10
ITEM: BOX BOUNDS pp pp pp
-5.0000000000000000e+00 5.0000000000000000e+00
-5.0000000000000000e+00 5.0000000000000000e+00
-5.0000000000000000e+00 5.0000000000000000e+00
ITEM: ATOMS id type xs ys zs
5 1 0.0236469 0.221842 0.257636
3 1 0.930585 0.178359 0.0632053
4 1 0.973532 0.194593 0.151456
6 1 0.087463 0.242617 0.347281
7 1 0.120032 0.256167 0.452473
8 1 0.142417 0.280641 0.536062
9 1 0.189646 0.300034 0.626072
1 1 0.871525 0.142043 0.879317
2 1 0.893291 0.160044 0.975865
10 1 0.19978 0.31668 0.720797
ITEM: TIMESTEP
19000
ITEM: NUMBER OF ATOMS
10
ITEM: BOX BOUNDS pp pp pp
-5.0000000000000000e+00 5.0000000000000000e+00
-5.0000000000000000e+00 5.0000000000000000e+00
-5.0000000000000000e+00 5.0000000000000000e+00
ITEM: ATOMS id type xs ys zs
5 1 0.0244049 0.223242 0.26076
3 1 0.932916 0.178886 0.065606
4 1 0.974473 0.194772 0.153415
6 1 0.0883353 0.242355 0.346304
7 1 0.119035 0.254928 0.452038
8 1 0.139357 0.28086 0.536646
9 1 0.188396 0.300204 0.622615
1 1 0.8719 0.142376 0.881269
2 1 0.893748 0.160354 0.976896
10 1 0.199351 0.315042 0.714614
ITEM: TIMESTEP
20000
ITEM: NUMBER OF ATOMS
10
ITEM: BOX BOUNDS pp pp pp
-5.0000000000000000e+00 5.0000000000000000e+00
-5.0000000000000000e+00 5.0000000000000000e+00
-5.0000000000000000e+00 5.0000000000000000e+00
ITEM: ATOMS id type xs ys zs
5 1 0.0251477 0.224561 0.263634
3 1 0.935246 0.179408 0.0679958
4 1 0.975646 0.195092 0.155873
6 1 0.0890777 0.24207 0.345445
7 1 0.117758 0.253453 0.450539
8 1 0.13655 0.281301 0.538012
9 1 0.187006 0.300293 0.618729
1 1 0.872316 0.142743 0.883401
2 1 0.894219 0.160656 0.97787
10 1 0.198951 0.313441 0.708664
ITEM: TIMESTEP
21000
ITEM: NUMBER OF ATOMS
10
ITEM: BOX BOUNDS pp pp pp
-5.0000000000000000e+00 5.0000000000000000e+00
-5.0000000000000000e+00 5.0000000000000000e+00
-5.0000000000000000e+00 5.0000000000000000e+00
ITEM: ATOMS id type xs ys zs
5 1 0.025838 0.225774 0.266186
3 1 0.937523 0.179903 0.0702673
4 1 0.977061 0.195565 0.15886
6 1 0.0897133 0.241771 0.344747
7 1 0.116302 0.251853 0.448343
8 1 0.133806 0.281823 0.539637
9 1 0.185541 0.300307 0.614331
1 1 0.872761 0.143134 0.88566
2 1 0.894755 0.160978 0.978926
10 1 0.198616 0.311911 0.703206
ITEM: TIMESTEP
22000
ITEM: NUMBER OF ATOMS
10
ITEM: BOX BOUNDS pp pp pp
-5.0000000000000000e+00 5.0000000000000000e+00
-5.0000000000000000e+00 5.0000000000000000e+00
-5.0000000000000000e+00 5.0000000000000000e+00
ITEM: ATOMS id type xs ys zs
5 1 0.0264377 0.226863 0.268358
3 1 0.93972 0.18036 0.0723757
4 1 0.978707 0.196192 0.162351
6 1 0.0902695 0.241465 0.344236
7 1 0.114751 0.250234 0.445792
8 1 0.13083 0.282246 0.54089
9 1 0.1842 0.300313 0.609586
1 1 0.873221 0.143537 0.887981
2 1 0.895403 0.161343 0.980188
10 1 0.198378 0.310467 0.698406
ITEM: TIMESTEP
23000
ITEM: NUMBER OF ATOMS
10
ITEM: BOX BOUNDS pp pp pp
-5.0000000000000000e+00 5.0000000000000000e+00
-5.0000000000000000e+00 5.0000000000000000e+00
-5.0000000000000000e+00 5.0000000000000000e+00
ITEM: ATOMS id type xs ys zs
5 1 0.0269097 0.227814 0.270108
3 1 0.941837 0.180782 0.0743321
4 1 0.980547 0.196959 0.16627
6 1 0.090777 0.241159 0.343921
7 1 0.113153 0.248665 0.443128
8 1 0.12719 0.282377 0.541107
9 1 0.183374 0.300451 0.604954
1 1 0.873681 0.14394 0.890305
2 1 0.896198 0.161771 0.981756
10 1 0.198248 0.309101 0.694284
ITEM: TIMESTEP
24000
ITEM: NUMBER OF ATOMS
10
ITEM: BOX BOUNDS pp pp pp
-5.0000000000000000e+00 5.0000000000000000e+00
-5.0000000000000000e+00 5.0000000000000000e+00
-5.0000000000000000e+00 5.0000000000000000e+00
ITEM: ATOMS id type xs ys zs
5 1 0.0272225 0.228621 0.271411
3 1 0.943887 0.181176 0.0761845
4 1 0.982537 0.197849 0.170507
6 1 0.0912624 0.240857 0.343781
7 1 0.111542 0.247192 0.440528
8 1 0.122546 0.282084 0.539903
9 1 0.183404 0.300838 0.600799
1 1 0.874131 0.144334 0.892584
2 1 0.897166 0.162276 0.983696
10 1 0.198219 0.307793 0.69077
ITEM: TIMESTEP
25000
ITEM: NUMBER OF ATOMS
10
ITEM: BOX BOUNDS pp pp pp
-5.0000000000000000e+00 5.0000000000000000e+00
-5.0000000000000000e+00 5.0000000000000000e+00
-5.0000000000000000e+00 5.0000000000000000e+00
ITEM: ATOMS id type xs ys zs
5 1 0.0273576 0.229285 0.272265
3 1 0.945888 0.181553 0.0779976
4 1 0.984624 0.198837 0.174945
6 1 0.091737 0.240556 0.343741
7 1 0.109941 0.245839 0.438151
8 1 0.117045 0.281409 0.537503
9 1 0.184163 0.301436 0.596937
1 1 0.874566 0.144718 0.894807
2 1 0.898319 0.16286 0.98603
10 1 0.198277 0.306527 0.687788
ITEM: TIMESTEP
26000
ITEM: NUMBER OF ATOMS
10
ITEM: BOX BOUNDS pp pp pp
-5.0000000000000000e+00 5.0000000000000000e+00
-5.0000000000000000e+00 5.0000000000000000e+00
-5.0000000000000000e+00 5.0000000000000000e+00
ITEM: ATOMS id type xs ys zs
5 1 0.0273189 0.229815 0.272702
3 1 0.947862 0.181928 0.0798409
4 1 0.986759 0.199898 0.179456
6 1 0.0921905 0.240251 0.343663
7 1 0.108368 0.244619 0.436161
8 1 0.111154 0.280492 0.534403
9 1 0.185217 0.302118 0.592967
1 1 0.874993 0.145095 0.896996
2 1 0.899652 0.163519 0.988729
10 1 0.198404 0.305286 0.685245
ITEM: TIMESTEP
27000
ITEM: NUMBER OF ATOMS
10
ITEM: BOX BOUNDS pp pp pp
-5.0000000000000000e+00 5.0000000000000000e+00
-5.0000000000000000e+00 5.0000000000000000e+00
-5.0000000000000000e+00 5.0000000000000000e+00
ITEM: ATOMS id type xs ys zs
5 1 0.0271393 0.230235 0.272803
3 1 0.94983 0.182313 0.0817832
4 1 0.988882 0.200994 0.183898
6 1 0.0925969 0.239935 0.343362
7 1 0.106842 0.243533 0.434723
8 1 0.105259 0.279452 0.530962
9 1 0.186223 0.302788 0.588704
1 1 0.875424 0.145475 0.899204
2 1 0.901149 0.164238 0.991729
10 1 0.198572 0.304056 0.682994
ITEM: TIMESTEP
28000
ITEM: NUMBER OF ATOMS
10
ITEM: BOX BOUNDS pp pp pp
-5.0000000000000000e+00 5.0000000000000000e+00
-5.0000000000000000e+00 5.0000000000000000e+00
-5.0000000000000000e+00 5.0000000000000000e+00
ITEM: ATOMS id type xs ys zs
5 1 0.0268799 0.230588 0.272704
3 1 0.951814 0.182724 0.0838905
4 1 0.990918 0.202075 0.188087
6 1 0.0929345 0.239603 0.342676
7 1 0.105369 0.242568 0.433945
8 1 0.0995894 0.27837 0.527392
9 1 0.186993 0.303392 0.584174
1 1 0.87588 0.145873 0.901496
2 1 0.902784 0.165 0.994944
10 1 0.198756 0.302827 0.680855
ITEM: TIMESTEP
29000
ITEM: NUMBER OF ATOMS
10
ITEM: BOX BOUNDS pp pp pp
-5.0000000000000000e+00 5.0000000000000000e+00
-5.0000000000000000e+00 5.0000000000000000e+00
-5.0000000000000000e+00 5.0000000000000000e+00
ITEM: ATOMS id type xs ys zs
5 1 0.026638 0.230952 0.27264
3 1 0.953833 0.183171 0.0862193
4 1 0.992756 0.203053 0.191749
6 1 0.0932087 0.239256 0.341561
7 1 0.103943 0.241691 0.433782
8 1 0.0942777 0.277313 0.523854
9 1 0.187422 0.303896 0.579476
1 1 0.876378 0.146301 0.903937
2 1 0.904528 0.165787 0.998287
10 1 0.198932 0.3016 0.678659
ITEM: TIMESTEP
30000
ITEM: NUMBER OF ATOMS
10
ITEM: BOX BOUNDS pp pp pp
-5.0000000000000000e+00 5.0000000000000000e+00
-5.0000000000000000e+00 5.0000000000000000e+00
-5.0000000000000000e+00 5.0000000000000000e+00
ITEM: ATOMS id type xs ys zs
5 1 0.0265464 0.231454 0.272963
3 1 0.9559 0.183666 0.0888106
4 1 0.994234 0.203794 0.194489
6 1 0.0934627 0.238902 0.340129
7 1 0.102553 0.240841 0.434004
8 1 0.0894009 0.27636 0.520524
9 1 0.187443 0.304272 0.574713
1 1 0.876937 0.146771 0.906583
2 1 0.906353 0.166582 1.00168
10 1 0.199087 0.300377 0.67627
ITEM: TIMESTEP
31000
ITEM: NUMBER OF ATOMS
10
ITEM: BOX BOUNDS pp pp pp
-5.0000000000000000e+00 5.0000000000000000e+00
-5.0000000000000000e+00 5.0000000000000000e+00
-5.0000000000000000e+00 5.0000000000000000e+00
ITEM: ATOMS id type xs ys zs
5 1 0.0267004 0.232231 0.274005
3 1 0.958022 0.184214 0.0916841
4 1 0.995195 0.204153 0.195912
6 1 0.0937827 0.238553 0.338596
7 1 0.101208 0.239928 0.43425
8 1 0.0849882 0.275614 0.517627
9 1 0.187007 0.304498 0.569967
1 1 0.877572 0.147293 0.909474
2 1 0.908233 0.167371 1.00505
10 1 0.199208 0.299165 0.673593
ITEM: TIMESTEP
32000
ITEM: NUMBER OF ATOMS
10
ITEM: BOX BOUNDS pp pp pp
-5.0000000000000000e+00 5.0000000000000000e+00
-5.0000000000000000e+00 5.0000000000000000e+00
-5.0000000000000000e+00 5.0000000000000000e+00
ITEM: ATOMS id type xs ys zs
5 1 0.0269991 0.233308 0.275732
3 1 0.960192 0.184812 0.0948269
4 1 0.995621 0.204098 0.195952
6 1 0.0943142 0.238224 0.337223
7 1 0.0999437 0.238848 0.434148
8 1 0.0810362 0.275189 0.515399
9 1 0.186075 0.304553 0.565302
1 1 0.878296 0.147872 0.912641
2 1 0.910153 0.168145 1.00838
10 1 0.199287 0.297972 0.67056
ITEM: TIMESTEP
33000
ITEM: NUMBER OF ATOMS
10
ITEM: BOX BOUNDS pp pp pp
-5.0000000000000000e+00 5.0000000000000000e+00
-5.0000000000000000e+00 5.0000000000000000e+00
-5.0000000000000000e+00 5.0000000000000000e+00
ITEM: ATOMS id type xs ys zs
5 1 0.0271191 0.234576 0.277684
3 1 0.962385 0.185449 0.0981796
4 1 0.995659 0.203741 0.194962
6 1 0.0952638 0.237924 0.336264
7 1 0.0988015 0.237529 0.433481
8 1 0.0775346 0.275162 0.513974
9 1 0.184619 0.304422 0.560767
1 1 0.879117 0.148513 0.916098
2 1 0.912102 0.168899 1.01163
10 1 0.199315 0.296804 0.667124
ITEM: TIMESTEP
34000
ITEM: NUMBER OF ATOMS
10
ITEM: BOX BOUNDS pp pp pp
-5.0000000000000000e+00 5.0000000000000000e+00
-5.0000000000000000e+00 5.0000000000000000e+00
-5.0000000000000000e+00 5.0000000000000000e+00
ITEM: ATOMS id type xs ys zs
5 1 0.0267324 0.235901 0.279356
3 1 0.964556 0.186104 0.101623
4 1 0.995501 0.203239 0.193426
6 1 0.0968102 0.237652 0.335863
7 1 0.0977824 0.235989 0.432289
8 1 0.0744999 0.275519 0.513284
9 1 0.182632 0.304099 0.556407
1 1 0.880039 0.149218 0.919852
2 1 0.91408 0.169634 1.01481
10 1 0.199284 0.295667 0.663255
ITEM: TIMESTEP
35000
ITEM: NUMBER OF ATOMS
10
ITEM: BOX BOUNDS pp pp pp
-5.0000000000000000e+00 5.0000000000000000e+00
-5.0000000000000000e+00 5.0000000000000000e+00
-5.0000000000000000e+00 5.0000000000000000e+00
ITEM: ATOMS id type xs ys zs
5 1 0.0257445 0.237199 0.280522
3 1 0.966624 0.186731 0.104926
4 1 0.99532 0.20273 0.191824
6 1 0.0989491 0.237396 0.335932
7 1 0.096842 0.234313 0.430828
8 1 0.0719761 0.276167 0.513108
9 1 0.180124 0.303584 0.55226
1 1 0.881066 0.149984 0.923894
2 1 0.916089 0.17035 1.01793
10 1 0.199182 0.294565 0.658937
ITEM: TIMESTEP
36000
ITEM: NUMBER OF ATOMS
10
ITEM: BOX BOUNDS pp pp pp
-5.0000000000000000e+00 5.0000000000000000e+00
-5.0000000000000000e+00 5.0000000000000000e+00
-5.0000000000000000e+00 5.0000000000000000e+00
ITEM: ATOMS id type xs ys zs
5 1 0.0243131 0.23843 0.281225
3 1 0.96844 0.187251 0.107646
4 1 0.99531 0.20235 0.190736
6 1 0.101477 0.237147 0.336169
7 1 0.0959172 0.2326 0.429428
8 1 0.0700039 0.276991 0.513203
9 1 0.177128 0.302887 0.548359
1 1 0.882193 0.150809 0.928207
2 1 0.918136 0.171053 1.02102
10 1 0.198999 0.293502 0.654166
ITEM: TIMESTEP
37000
ITEM: NUMBER OF ATOMS
10
ITEM: BOX BOUNDS pp pp pp
-5.0000000000000000e+00 5.0000000000000000e+00
-5.0000000000000000e+00 5.0000000000000000e+00
-5.0000000000000000e+00 5.0000000000000000e+00
ITEM: ATOMS id type xs ys zs
5 1 0.0226824 0.239569 0.281603
3 1 0.969804 0.187547 0.109143
4 1 0.995698 0.202246 0.190886
6 1 0.104146 0.23691 0.336234
7 1 0.0949471 0.230924 0.428383
8 1 0.0685984 0.277897 0.513383
9 1 0.173685 0.30202 0.544725
1 1 0.883414 0.151687 0.932764
2 1 0.920216 0.171744 1.02409
10 1 0.198724 0.292478 0.648951
ITEM: TIMESTEP
38000
ITEM: NUMBER OF ATOMS
10
ITEM: BOX BOUNDS pp pp pp
-5.0000000000000000e+00 5.0000000000000000e+00
-5.0000000000000000e+00 5.0000000000000000e+00
-5.0000000000000000e+00 5.0000000000000000e+00
ITEM: ATOMS id type xs ys zs
5 1 0.0210621 0.240606 0.281796
3 1 0.970647 0.187568 0.109119
4 1 0.996592 0.202486 0.192643
6 1 0.106768 0.236698 0.335904
7 1 0.093884 0.229331 0.427869
8 1 0.0677449 0.27881 0.51352
9 1 0.169851 0.301001 0.541368
1 1 0.884717 0.152609 0.937522
2 1 0.922305 0.172419 1.02711
10 1 0.198347 0.291492 0.643312
ITEM: TIMESTEP
39000
ITEM: NUMBER OF ATOMS
10
ITEM: BOX BOUNDS pp pp pp
-5.0000000000000000e+00 5.0000000000000000e+00
-5.0000000000000000e+00 5.0000000000000000e+00
-5.0000000000000000e+00 5.0000000000000000e+00
ITEM: ATOMS id type xs ys zs
5 1 0.0196109 0.241559 0.281952
3 1 0.971194 0.187417 0.108127
4 1 0.997841 0.202977 0.195562
6 1 0.109214 0.236519 0.33514
7 1 0.0927057 0.227855 0.427897
8 1 0.0673872 0.279674 0.51353
9 1 0.165704 0.299854 0.538285
1 1 0.886079 0.153563 0.942423
2 1 0.92432 0.173058 1.02996
10 1 0.197861 0.290543 0.637284
ITEM: TIMESTEP
40000
ITEM: NUMBER OF ATOMS
10
ITEM: BOX BOUNDS pp pp pp
-5.0000000000000000e+00 5.0000000000000000e+00
-5.0000000000000000e+00 5.0000000000000000e+00
-5.0000000000000000e+00 5.0000000000000000e+00
ITEM: ATOMS id type xs ys zs
5 1 0.0184557 0.242483 0.282259
3 1 0.971855 0.187269 0.107143
4 1 0.999211 0.203546 0.19888
6 1 0.111382 0.236372 0.334044
7 1 0.0914225 0.226527 0.428344
8 1 0.0674135 0.280439 0.513349
9 1 0.161362 0.298612 0.535466
1 1 0.887466 0.154529 0.947381
2 1 0.926084 0.173616 1.03238
10 1 0.197265 0.289626 0.630913
ITEM: TIMESTEP
41000
ITEM: NUMBER OF ATOMS
10
ITEM: BOX BOUNDS pp pp pp
-5.0000000000000000e+00 5.0000000000000000e+00
-5.0000000000000000e+00 5.0000000000000000e+00
-5.0000000000000000e+00 5.0000000000000000e+00
ITEM: ATOMS id type xs ys zs
3 1 0.973066 0.187287 0.107066
4 1 1.00053 0.204019 0.201982
2 1 0.927348 0.174033 0.0340146
5 1 0.0177042 0.243475 0.282961
6 1 0.113184 0.236245 0.332773
7 1 0.0900687 0.225374 0.429038
8 1 0.067605 0.28105 0.512918
9 1 0.157035 0.297327 0.532899
10 1 0.196566 0.288735 0.62427
1 1 0.888808 0.155474 0.952242
ITEM: TIMESTEP
42000
ITEM: NUMBER OF ATOMS
10
ITEM: BOX BOUNDS pp pp pp
-5.0000000000000000e+00 5.0000000000000000e+00
-5.0000000000000000e+00 5.0000000000000000e+00
-5.0000000000000000e+00 5.0000000000000000e+00
ITEM: ATOMS id type xs ys zs
3 1 0.975075 0.187553 0.108366
4 1 1.00171 0.204247 0.204461
2 1 0.928058 0.174326 0.0348554
5 1 0.0174367 0.244649 0.284301
6 1 0.114551 0.236129 0.331469
7 1 0.088687 0.224414 0.42982
8 1 0.0675304 0.281427 0.512152
9 1 0.153119 0.296084 0.530584
10 1 0.195792 0.287861 0.617448
1 1 0.889962 0.156328 0.956706
ITEM: TIMESTEP
43000
ITEM: NUMBER OF ATOMS
10
ITEM: BOX BOUNDS pp pp pp
-5.0000000000000000e+00 5.0000000000000000e+00
-5.0000000000000000e+00 5.0000000000000000e+00
-5.0000000000000000e+00 5.0000000000000000e+00
ITEM: ATOMS id type xs ys zs
3 1 0.977766 0.188034 0.110866
4 1 1.00271 0.204162 0.206169
2 1 0.928608 0.174661 0.0356645
5 1 0.0176807 0.246061 0.286378
6 1 0.11544 0.236014 0.330251
7 1 0.0873184 0.223651 0.430557
8 1 0.0665042 0.281469 0.510933
9 1 0.150229 0.295012 0.528517
10 1 0.195004 0.286989 0.610596
1 1 0.890657 0.156966 0.960232
ITEM: TIMESTEP
44000
ITEM: NUMBER OF ATOMS
10
ITEM: BOX BOUNDS pp pp pp
-5.0000000000000000e+00 5.0000000000000000e+00
-5.0000000000000000e+00 5.0000000000000000e+00
-5.0000000000000000e+00 5.0000000000000000e+00
ITEM: ATOMS id type xs ys zs
3 1 0.980862 0.188643 0.114091
4 1 1.00359 0.203824 0.207273
2 1 0.929553 0.175249 0.0374211
5 1 0.0184018 0.247655 0.289061
6 1 0.115832 0.235897 0.329208
7 1 0.0859975 0.223074 0.431138
8 1 0.0639975 0.281121 0.509193
9 1 0.148748 0.294209 0.52655
10 1 0.19434 0.286095 0.603966
1 1 0.890599 0.157253 0.962262
ITEM: TIMESTEP
45000
ITEM: NUMBER OF ATOMS
10
ITEM: BOX BOUNDS pp pp pp
-5.0000000000000000e+00 5.0000000000000000e+00
-5.0000000000000000e+00 5.0000000000000000e+00
-5.0000000000000000e+00 5.0000000000000000e+00
ITEM: ATOMS id type xs ys zs
3 1 0.984141 0.189302 0.117609
4 1 1.00442 0.203377 0.20815
2 1 0.931053 0.176128 0.0403254
5 1 0.0195258 0.249309 0.292091
6 1 0.11574 0.235773 0.328417
7 1 0.0847529 0.222658 0.431464
8 1 0.0602188 0.280459 0.507037
9 1 0.148188 0.29368 0.524192
10 1 0.194067 0.285131 0.597996
1 1 0.889811 0.157202 0.962882
ITEM: TIMESTEP
46000
ITEM: NUMBER OF ATOMS
10
ITEM: BOX BOUNDS pp pp pp
-5.0000000000000000e+00 5.0000000000000000e+00
-5.0000000000000000e+00 5.0000000000000000e+00
-5.0000000000000000e+00 5.0000000000000000e+00
ITEM: ATOMS id type xs ys zs
3 1 0.987456 0.189948 0.12102
4 1 1.00531 0.202974 0.209279
2 1 0.932859 0.177167 0.0438443
5 1 0.0209588 0.25091 0.295224
6 1 0.115206 0.235639 0.327939
7 1 0.0836101 0.222362 0.431445
8 1 0.0557837 0.279628 0.504659
9 1 0.147578 0.293392 0.520787
10 1 0.19453 0.28403 0.593207
1 1 0.888629 0.156971 0.962759
ITEM: TIMESTEP
47000
ITEM: NUMBER OF ATOMS
10
ITEM: BOX BOUNDS pp pp pp
-5.0000000000000000e+00 5.0000000000000000e+00
-5.0000000000000000e+00 5.0000000000000000e+00
-5.0000000000000000e+00 5.0000000000000000e+00
ITEM: ATOMS id type xs ys zs
3 1 0.990705 0.190519 0.123913
4 1 1.00634 0.202745 0.211154
2 1 0.934702 0.178234 0.0474546
5 1 0.0225849 0.252389 0.298279
6 1 0.114315 0.235482 0.327827
7 1 0.082592 0.222146 0.431012
8 1 0.0511492 0.278742 0.502214
9 1 0.146353 0.2933 0.516147
10 1 0.195818 0.282764 0.589692
1 1 0.887358 0.156698 0.962471
ITEM: TIMESTEP
48000
ITEM: NUMBER OF ATOMS
10
ITEM: BOX BOUNDS pp pp pp
-5.0000000000000000e+00 5.0000000000000000e+00
-5.0000000000000000e+00 5.0000000000000000e+00
-5.0000000000000000e+00 5.0000000000000000e+00
ITEM: ATOMS id type xs ys zs
3 1 0.993847 0.19098 0.12602
4 1 1.00757 0.202763 0.214099
2 1 0.936419 0.179254 0.0508595
5 1 0.0242462 0.253726 0.301136
6 1 0.113212 0.235283 0.328127
7 1 0.081714 0.221978 0.430129
8 1 0.0465548 0.277873 0.499786
9 1 0.144559 0.293312 0.510719
10 1 0.197628 0.281387 0.586959
1 1 0.886168 0.156463 0.962329
ITEM: TIMESTEP
49000
ITEM: NUMBER OF ATOMS
10
ITEM: BOX BOUNDS pp pp pp
-5.0000000000000000e+00 5.0000000000000000e+00
-5.0000000000000000e+00 5.0000000000000000e+00
-5.0000000000000000e+00 5.0000000000000000e+00
ITEM: ATOMS id type xs ys zs
3 1 0.996925 0.191351 0.127433
4 1 1.00896 0.203027 0.218058
2 1 0.937911 0.180186 0.0538926
5 1 0.0257229 0.25495 0.303706
6 1 0.11212 0.235 0.328882
7 1 0.0809765 0.221842 0.428808
8 1 0.0421331 0.277054 0.497404
9 1 0.142421 0.293329 0.505041
10 1 0.199597 0.279976 0.584455
1 1 0.885147 0.156304 0.962484
ITEM: TIMESTEP
50000
ITEM: NUMBER OF ATOMS
10
ITEM: BOX BOUNDS pp pp pp
-5.0000000000000000e+00 5.0000000000000000e+00
-5.0000000000000000e+00 5.0000000000000000e+00
-5.0000000000000000e+00 5.0000000000000000e+00
ITEM: ATOMS id type xs ys zs
3 1 1.00002 0.191679 0.128507
4 1 1.01046 0.203481 0.22267
2 1 0.939107 0.181005 0.056452
5 1 0.0267503 0.256135 0.305938
6 1 0.11132 0.234575 0.33012
7 1 0.0803595 0.221745 0.427109
8 1 0.0379769 0.276289 0.495054
9 1 0.140084 0.293284 0.499443
10 1 0.201493 0.278582 0.581851
1 1 0.884345 0.156244 0.963017
ITEM: TIMESTEP
51000
ITEM: NUMBER OF ATOMS
10
ITEM: BOX BOUNDS pp pp pp
-5.0000000000000000e+00 5.0000000000000000e+00
-5.0000000000000000e+00 5.0000000000000000e+00
-5.0000000000000000e+00 5.0000000000000000e+00
ITEM: ATOMS id type xs ys zs
3 1 1.00318 0.19201 0.129584
4 1 1.012 0.204047 0.227532
2 1 0.939977 0.181697 0.0584942
5 1 0.0271212 0.257379 0.30783
6 1 0.111055 0.233952 0.33182
7 1 0.0798201 0.221702 0.425148
8 1 0.0341626 0.275562 0.492699
9 1 0.137616 0.293137 0.494097
10 1 0.203191 0.277235 0.578982
1 1 0.883793 0.156298 0.963977
ITEM: TIMESTEP
52000
ITEM: NUMBER OF ATOMS
10
ITEM: BOX BOUNDS pp pp pp
-5.0000000000000000e+00 5.0000000000000000e+00
-5.0000000000000000e+00 5.0000000000000000e+00
-5.0000000000000000e+00 5.0000000000000000e+00
ITEM: ATOMS id type xs ys zs
3 1 1.00639 0.192365 0.130851
4 1 1.01353 0.204632 0.232302
2 1 0.940542 0.182262 0.0600427
5 1 0.0268312 0.258767 0.309481
6 1 0.111392 0.233129 0.333852
7 1 0.0792911 0.221721 0.423096
8 1 0.0307536 0.274854 0.490293
9 1 0.135056 0.292862 0.4891
10 1 0.204614 0.275955 0.575758
1 1 0.883509 0.156472 0.965388
ITEM: TIMESTEP
53000
ITEM: NUMBER OF ATOMS
10
ITEM: BOX BOUNDS pp pp pp
-5.0000000000000000e+00 5.0000000000000000e+00
-5.0000000000000000e+00 5.0000000000000000e+00
-5.0000000000000000e+00 5.0000000000000000e+00
ITEM: ATOMS id type xs ys zs
3 1 1.00959 0.19275 0.132373
4 1 1.01504 0.205121 0.236697
2 1 0.940866 0.182708 0.0611722
5 1 0.0260899 0.260356 0.311082
6 1 0.112224 0.232175 0.335937
7 1 0.0786697 0.221795 0.421206
8 1 0.0277955 0.274147 0.487799
9 1 0.132434 0.292441 0.484518
10 1 0.205709 0.274754 0.572126
1 1 0.883499 0.15677 0.967254
ITEM: TIMESTEP
54000
ITEM: NUMBER OF ATOMS
10
ITEM: BOX BOUNDS pp pp pp
-5.0000000000000000e+00 5.0000000000000000e+00