# LAMMPS data file written by OVITO Basic 3.9.2

10 atoms
9 bonds
1 atom types
1 bond types

-5.0 5.0 xlo xhi
-5.0 5.0 ylo yhi
-5.0 5.0 zlo zhi

Masses

1 1.0

Atoms

1 1 3.6720747474 -3.6194758432 -6.4505222424 1 1 238.7324039657 0 0 0
2 1 3.8592290209 -3.4471688169 -5.4035084165 1 1 238.7324039657 0 0 0
3 1 4.1259811856 -3.2386686297 -4.4456230844 1 1 238.7324039657 0 0 0
4 1 4.6748644336 -3.0339567014 -3.595721315 1 1 238.7324039657 0 0 0
5 1 5.2659695854 -2.9172640212 -2.6675677911 1 1 238.7324039657 0 0 0
6 1 5.4991127213 -2.6567319878 -1.7219211522 1 1 238.7324039657 0 0 0
7 1 6.3031744326 -2.2987959205 -0.6179449271 1 1 238.7324039657 0 0 0
8 1 6.9166825231 -2.1720350919 0.5026608531 1 1 238.7324039657 0 0 0
9 1 6.9712479822 -1.9939358734 1.7933897807 1 1 238.7324039657 0 0 0
10 1 7.0308270283 -1.6917691085 2.7083904569 1 1 238.7324039657 0 0 0

Velocities

1 0.0 0.0 0.0 0.0 0.0 0.0
2 0.0 0.0 0.0 0.0 0.0 0.0
3 0.0 0.0 0.0 0.0 0.0 0.0
4 0.0 0.0 0.0 0.0 0.0 0.0
5 0.0 0.0 0.0 0.0 0.0 0.0
6 0.0 0.0 0.0 0.0 0.0 0.0
7 0.0 0.0 0.0 0.0 0.0 0.0
8 0.0 0.0 0.0 0.0 0.0 0.0
9 0.0 0.0 0.0 0.0 0.0 0.0
10 0.0 0.0 0.0 0.0 0.0 0.0

Bonds

1 1 1 2
2 1 2 3
3 1 3 4
4 1 4 5
5 1 5 6
6 1 6 7
7 1 7 8
8 1 8 9
9 1 9 10
