LAMMPS data file via write_data, version 27 Jun 2024, timestep = 10000, units = lj

4 atoms
1 atom types
4 ellipsoids

-2 2 xlo xhi
-2 2 ylo yhi
-5 5 zlo zhi

Atoms # ellipsoid/kk

4 1 1 238.7324039657 0 0 -1.500000000001244 0 0 10
2 1 1 238.7324039657 0 0 -0.5000000000012439 0 0 10
1 1 1 238.7324039657 0 0 0.4999999999987567 0 0 10
3 1 1 238.7324039657 0 0 1.4999999999987566 0 0 10

Velocities

4 0 0 10 0 0 0
2 0 0 10 0 0 0
1 0 0 10 0 0 0
3 0 0 10 0 0 0

Ellipsoids

4 0.5 1 0.5 0.9237852583388739 0.3829109511045357 0 0
2 0.5 1 0.5 0.9237852583388739 0.3829109511045357 0 0
1 0.5 0.5 1 1 0 0 0
3 1 0.5 0.5 0.9237852583388739 0 0.3829109511045357 0
