LAMMPS (27 Jun 2024)
KOKKOS mode with Kokkos version 4.3.1 is enabled (../kokkos.cpp:72)
package kokkos
package kokkos comm device
###
# Box and units  (use LJ units and periodic boundaries)
###

units lj

atom_style ellipsoid

boundary        p p p

neighbor 0.0 bin
neigh_modify every 1 delay 0 check yes

read_data lmp_data
Reading data file ...
  orthogonal box = (-2 -2 -5) to (2 2 5)
  1 by 1 by 2 MPI processor grid
  reading atoms ...
  4 atoms
  reading velocities ...
  4 velocities
  4 ellipsoids
  read_data CPU = 0.010 seconds
#read_data lmp_data_ordered

reset_timestep 0

######################

group all type 1
4 atoms in group all
group polymer type 1
4 atoms in group polymer

###
# Dump configs + box coords
###
compute q all property/atom quatw quati quatj quatk
compute diameter all property/atom shapex shapey shapez
dump 1 all custom 1 dump.polymer id type x y z c_q[1] c_q[2] c_q[3] c_q[4] c_diameter[1] c_diameter[2] c_diameter[3]
dump_modify 1 colname c_q[1] quatw colname c_q[2] quati colname c_q[3] quatj colname c_q[4] quatk
dump_modify 1 colname c_diameter[1] shapex colname c_diameter[2] shapey colname c_diameter[3] shapez
#dump   1   all   custom   100000   polymer.dump.*  id x y z  ix iy iz
#dump_modify   1   format line "%d %.5f %.5f %.5f %d %d %d"
#dump   id all atom 1000 dump.polymer

###################################################################
# Stiffness term
#
# E = K * (theta-thera0)**2, K>0
#
#angle_style   harmonic
#angle_coeff   1 2.0 120.0
###################################################################

###################################################################
# Pair interaction between non-bonded atoms
#
#  Lennard-Jones 12-6 potential with cutoff:
#  potential E=4epsilon[ (sigma/r)^12 - (sigma/r)^6]  for r<r_cut
#
#  1.12246152962189 = 2^(1/6) is the minimum of the potential

pair_style      lj/cut 0.112246152962189

#
#  pair_coeff for lj/cut, specify 4:
#    * atom type interacting with
#    * atom type
#    * epsilon (energy units)
#    * sigma (distance units)
#

pair_coeff      1 1 0.1 0.1

#
#  pair_modify shift yes adds a constant to the potential such
#  that E(r_cut)=0. Forces remains unchanged.
#

pair_modify     shift yes

###################################################

#comm_modify cutoff 6
#comm_style tiled
#balance 1.2 rcb

###
# Set up fixes
###

fix 1 all   nve   ###NVE ensemble

compute ekin all ke
compute epot all pe
variable ekin equal c_ekin
variable epot equal c_epot
variable etot equal c_ekin+c_epot

fix 2 all print 1 "$(step)  ekin = ${ekin} | epot = ${epot} | etot = ${etot}" screen yes

##### Sample thermodynamic info  (temperature, energy, pressure, etc.) #####
#thermo 10000
#thermo_style   custom   step  temp  epair  emol  press pxx pyy pzz  vol
############################################################################

timestep 0.001

run 10000

CITE-CITE-CITE-CITE-CITE-CITE-CITE-CITE-CITE-CITE-CITE-CITE-CITE

Your simulation uses code contributions which should be cited:

- Type Label Framework: https://doi.org/10.1021/acs.jpcb.3c08419

@Article{Gissinger24,
 author = {Jacob R. Gissinger, Ilia Nikiforov, Yaser Afshar, Brendon Waters, Moon-ki Choi, Daniel S. Karls, Alexander Stukowski, Wonpil Im, Hendrik Heinz, Axel Kohlmeyer, and Ellad B. Tadmor},
 title = {Type Label Framework for Bonded Force Fields in LAMMPS},
 journal = {J. Phys. Chem. B},
 year =    2024,
 volume =  128,
 number =  13,
 pages =   {3282–-3297}
}

CITE-CITE-CITE-CITE-CITE-CITE-CITE-CITE-CITE-CITE-CITE-CITE-CITE

Generated 0 of 0 mixed pair_coeff terms from geometric mixing rule
Neighbor list info ...
  update: every = 1 steps, delay = 0 steps, check = yes
  max neighbors/atom: 2000, page size: 100000
  master list distance cutoff = 0.11224615
  ghost atom cutoff = 0.11224615
  binsize = 0.056123076, bins = 72 72 179
  1 neighbor lists, perpetual/occasional/extra = 1 0 0
  (1) pair lj/cut/kk, perpetual
      attributes: half, newton on, kokkos_device
      pair build: half/bin/newton/kk/device
      stencil: half/bin/3d
      bin: kk/device
0  ekin = 6249.99972060395 | epot = 0 | etot = 6249.99972060395
Per MPI rank memory allocation (min/avg/max) = 5.174 | 5.174 | 5.174 Mbytes
   Step          Temp          E_pair         E_mol          TotEng         Press     
         0   1388.8888      0              0              1562.4999      26.041666    
1  ekin = 6249.99972060395 | epot = 0 | etot = 6249.99972060395
2  ekin = 6249.99972060395 | epot = 0 | etot = 6249.99972060395
3  ekin = 6249.99972060395 | epot = 0 | etot = 6249.99972060395
4  ekin = 6249.99972060395 | epot = 0 | etot = 6249.99972060395
5  ekin = 6249.99972060395 | epot = 0 | etot = 6249.99972060395
6  ekin = 6249.99972060395 | epot = 0 | etot = 6249.99972060395
7  ekin = 6249.99972060395 | epot = 0 | etot = 6249.99972060395
8  ekin = 6249.99972060395 | epot = 0 | etot = 6249.99972060395
9  ekin = 6249.99972060395 | epot = 0 | etot = 6249.99972060395
10  ekin = 6249.99972060395 | epot = 0 | etot = 6249.99972060395
11  ekin = 6249.99972060395 | epot = 0 | etot = 6249.99972060395
12  ekin = 6249.99972060395 | epot = 0 | etot = 6249.99972060395
13  ekin = 6249.99972060395 | epot = 0 | etot = 6249.99972060395
14  ekin = 6249.99972060395 | epot = 0 | etot = 6249.99972060395
15  ekin = 6249.99972060395 | epot = 0 | etot = 6249.99972060395
16  ekin = 6249.99972060395 | epot = 0 | etot = 6249.99972060395
17  ekin = 6249.99972060395 | epot = 0 | etot = 6249.99972060395
18  ekin = 6249.99972060395 | epot = 0 | etot = 6249.99972060395
19  ekin = 6249.99972060395 | epot = 0 | etot = 6249.99972060395
20  ekin = 6249.99972060395 | epot = 0 | etot = 6249.99972060395
21  ekin = 6249.99972060395 | epot = 0 | etot = 6249.99972060395
22  ekin = 6249.99972060395 | epot = 0 | etot = 6249.99972060395
23  ekin = 6249.99972060395 | epot = 0 | etot = 6249.99972060395
24  ekin = 6249.99972060395 | epot = 0 | etot = 6249.99972060395
25  ekin = 6249.99972060395 | epot = 0 | etot = 6249.99972060395
26  ekin = 6249.99972060395 | epot = 0 | etot = 6249.99972060395
27  ekin = 6249.99972060395 | epot = 0 | etot = 6249.99972060395
28  ekin = 6249.99972060395 | epot = 0 | etot = 6249.99972060395
29  ekin = 6249.99972060395 | epot = 0 | etot = 6249.99972060395
30  ekin = 6249.99972060395 | epot = 0 | etot = 6249.99972060395
31  ekin = 6249.99972060395 | epot = 0 | etot = 6249.99972060395
32  ekin = 6249.99972060395 | epot = 0 | etot = 6249.99972060395
33  ekin = 6249.99972060395 | epot = 0 | etot = 6249.99972060395
34  ekin = 6249.99972060395 | epot = 0 | etot = 6249.99972060395
35  ekin = 6249.99972060395 | epot = 0 | etot = 6249.99972060395
36  ekin = 6249.99972060395 | epot = 0 | etot = 6249.99972060395
37  ekin = 6249.99972060395 | epot = 0 | etot = 6249.99972060395
38  ekin = 6249.99972060395 | epot = 0 | etot = 6249.99972060395
39  ekin = 6249.99972060395 | epot = 0 | etot = 6249.99972060395
40  ekin = 6249.99972060395 | epot = 0 | etot = 6249.99972060395
41  ekin = 6249.99972060395 | epot = 0 | etot = 6249.99972060395
42  ekin = 6249.99972060395 | epot = 0 | etot = 6249.99972060395
43  ekin = 6249.99972060395 | epot = 0 | etot = 6249.99972060395
44  ekin = 6249.99972060395 | epot = 0 | etot = 6249.99972060395
45  ekin = 6249.99972060395 | epot = 0 | etot = 6249.99972060395
46  ekin = 6249.99972060395 | epot = 0 | etot = 6249.99972060395
47  ekin = 6249.99972060395 | epot = 0 | etot = 6249.99972060395
48  ekin = 6249.99972060395 | epot = 0 | etot = 6249.99972060395
49  ekin = 6249.99972060395 | epot = 0 | etot = 6249.99972060395
50  ekin = 6249.99972060395 | epot = 0 | etot = 6249.99972060395
51  ekin = 6249.99972060395 | epot = 0 | etot = 6249.99972060395
52  ekin = 6249.99972060395 | epot = 0 | etot = 6249.99972060395
53  ekin = 6249.99972060395 | epot = 0 | etot = 6249.99972060395
54  ekin = 6249.99972060395 | epot = 0 | etot = 6249.99972060395
55  ekin = 6249.99972060395 | epot = 0 | etot = 6249.99972060395
56  ekin = 6249.99972060395 | epot = 0 | etot = 6249.99972060395
57  ekin = 6249.99972060395 | epot = 0 | etot = 6249.99972060395
58  ekin = 6249.99972060395 | epot = 0 | etot = 6249.99972060395
59  ekin = 6249.99972060395 | epot = 0 | etot = 6249.99972060395
60  ekin = 6249.99972060395 | epot = 0 | etot = 6249.99972060395
61  ekin = 6249.99972060395 | epot = 0 | etot = 6249.99972060395
62  ekin = 6249.99972060395 | epot = 0 | etot = 6249.99972060395
63  ekin = 6249.99972060395 | epot = 0 | etot = 6249.99972060395
64  ekin = 6249.99972060395 | epot = 0 | etot = 6249.99972060395
65  ekin = 6249.99972060395 | epot = 0 | etot = 6249.99972060395
66  ekin = 6249.99972060395 | epot = 0 | etot = 6249.99972060395
67  ekin = 6249.99972060395 | epot = 0 | etot = 6249.99972060395
68  ekin = 6249.99972060395 | epot = 0 | etot = 6249.99972060395
69  ekin = 6249.99972060395 | epot = 0 | etot = 6249.99972060395
70  ekin = 6249.99972060395 | epot = 0 | etot = 6249.99972060395
71  ekin = 6249.99972060395 | epot = 0 | etot = 6249.99972060395
72  ekin = 6249.99972060395 | epot = 0 | etot = 6249.99972060395
73  ekin = 6249.99972060395 | epot = 0 | etot = 6249.99972060395
74  ekin = 6249.99972060395 | epot = 0 | etot = 6249.99972060395
75  ekin = 6249.99972060395 | epot = 0 | etot = 6249.99972060395
76  ekin = 6249.99972060395 | epot = 0 | etot = 6249.99972060395
77  ekin = 6249.99972060395 | epot = 0 | etot = 6249.99972060395
78  ekin = 6249.99972060395 | epot = 0 | etot = 6249.99972060395
79  ekin = 6249.99972060395 | epot = 0 | etot = 6249.99972060395
80  ekin = 6249.99972060395 | epot = 0 | etot = 6249.99972060395
81  ekin = 6249.99972060395 | epot = 0 | etot = 6249.99972060395
82  ekin = 6249.99972060395 | epot = 0 | etot = 6249.99972060395
83  ekin = 6249.99972060395 | epot = 0 | etot = 6249.99972060395
84  ekin = 6249.99972060395 | epot = 0 | etot = 6249.99972060395
85  ekin = 6249.99972060395 | epot = 0 | etot = 6249.99972060395
86  ekin = 6249.99972060395 | epot = 0 | etot = 6249.99972060395
87  ekin = 6249.99972060395 | epot = 0 | etot = 6249.99972060395
88  ekin = 6249.99972060395 | epot = 0 | etot = 6249.99972060395
89  ekin = 6249.99972060395 | epot = 0 | etot = 6249.99972060395
90  ekin = 6249.99972060395 | epot = 0 | etot = 6249.99972060395
91  ekin = 6249.99972060395 | epot = 0 | etot = 6249.99972060395
92  ekin = 6249.99972060395 | epot = 0 | etot = 6249.99972060395
93  ekin = 6249.99972060395 | epot = 0 | etot = 6249.99972060395
94  ekin = 6249.99972060395 | epot = 0 | etot = 6249.99972060395
95  ekin = 6249.99972060395 | epot = 0 | etot = 6249.99972060395
96  ekin = 6249.99972060395 | epot = 0 | etot = 6249.99972060395
97  ekin = 6249.99972060395 | epot = 0 | etot = 6249.99972060395
98  ekin = 6249.99972060395 | epot = 0 | etot = 6249.99972060395
99  ekin = 6249.99972060395 | epot = 0 | etot = 6249.99972060395
100  ekin = 6249.99972060395 | epot = 0 | etot = 6249.99972060395
101  ekin = 6249.99972060395 | epot = 0 | etot = 6249.99972060395
102  ekin = 6249.99972060395 | epot = 0 | etot = 6249.99972060395
103  ekin = 6249.99972060395 | epot = 0 | etot = 6249.99972060395
104  ekin = 6249.99972060395 | epot = 0 | etot = 6249.99972060395
105  ekin = 6249.99972060395 | epot = 0 | etot = 6249.99972060395
106  ekin = 6249.99972060395 | epot = 0 | etot = 6249.99972060395
107  ekin = 6249.99972060395 | epot = 0 | etot = 6249.99972060395
108  ekin = 6249.99972060395 | epot = 0 | etot = 6249.99972060395
109  ekin = 6249.99972060395 | epot = 0 | etot = 6249.99972060395
110  ekin = 6249.99972060395 | epot = 0 | etot = 6249.99972060395
111  ekin = 6249.99972060395 | epot = 0 | etot = 6249.99972060395
112  ekin = 6249.99972060395 | epot = 0 | etot = 6249.99972060395
113  ekin = 6249.99972060395 | epot = 0 | etot = 6249.99972060395
114  ekin = 6249.99972060395 | epot = 0 | etot = 6249.99972060395
115  ekin = 6249.99972060395 | epot = 0 | etot = 6249.99972060395
116  ekin = 6249.99972060395 | epot = 0 | etot = 6249.99972060395
117  ekin = 6249.99972060395 | epot = 0 | etot = 6249.99972060395
118  ekin = 6249.99972060395 | epot = 0 | etot = 6249.99972060395
119  ekin = 6249.99972060395 | epot = 0 | etot = 6249.99972060395
120  ekin = 6249.99972060395 | epot = 0 | etot = 6249.99972060395
121  ekin = 6249.99972060395 | epot = 0 | etot = 6249.99972060395
122  ekin = 6249.99972060395 | epot = 0 | etot = 6249.99972060395
123  ekin = 6249.99972060395 | epot = 0 | etot = 6249.99972060395
124  ekin = 6249.99972060395 | epot = 0 | etot = 6249.99972060395
125  ekin = 6249.99972060395 | epot = 0 | etot = 6249.99972060395
126  ekin = 6249.99972060395 | epot = 0 | etot = 6249.99972060395
127  ekin = 6249.99972060395 | epot = 0 | etot = 6249.99972060395
128  ekin = 6249.99972060395 | epot = 0 | etot = 6249.99972060395
129  ekin = 6249.99972060395 | epot = 0 | etot = 6249.99972060395
130  ekin = 6249.99972060395 | epot = 0 | etot = 6249.99972060395
131  ekin = 6249.99972060395 | epot = 0 | etot = 6249.99972060395
132  ekin = 6249.99972060395 | epot = 0 | etot = 6249.99972060395
133  ekin = 6249.99972060395 | epot = 0 | etot = 6249.99972060395
134  ekin = 6249.99972060395 | epot = 0 | etot = 6249.99972060395
135  ekin = 6249.99972060395 | epot = 0 | etot = 6249.99972060395
136  ekin = 6249.99972060395 | epot = 0 | etot = 6249.99972060395
137  ekin = 6249.99972060395 | epot = 0 | etot = 6249.99972060395
138  ekin = 6249.99972060395 | epot = 0 | etot = 6249.99972060395
139  ekin = 6249.99972060395 | epot = 0 | etot = 6249.99972060395
140  ekin = 6249.99972060395 | epot = 0 | etot = 6249.99972060395
141  ekin = 6249.99972060395 | epot = 0 | etot = 6249.99972060395
142  ekin = 6249.99972060395 | epot = 0 | etot = 6249.99972060395
143  ekin = 6249.99972060395 | epot = 0 | etot = 6249.99972060395
144  ekin = 6249.99972060395 | epot = 0 | etot = 6249.99972060395
145  ekin = 6249.99972060395 | epot = 0 | etot = 6249.99972060395
146  ekin = 6249.99972060395 | epot = 0 | etot = 6249.99972060395
147  ekin = 6249.99972060395 | epot = 0 | etot = 6249.99972060395
148  ekin = 6249.99972060395 | epot = 0 | etot = 6249.99972060395
149  ekin = 6249.99972060395 | epot = 0 | etot = 6249.99972060395
150  ekin = 6249.99972060395 | epot = 0 | etot = 6249.99972060395
151  ekin = 6249.99972060395 | epot = 0 | etot = 6249.99972060395
152  ekin = 6249.99972060395 | epot = 0 | etot = 6249.99972060395
153  ekin = 6249.99972060395 | epot = 0 | etot = 6249.99972060395
154  ekin = 6249.99972060395 | epot = 0 | etot = 6249.99972060395
155  ekin = 6249.99972060395 | epot = 0 | etot = 6249.99972060395
156  ekin = 6249.99972060395 | epot = 0 | etot = 6249.99972060395
157  ekin = 6249.99972060395 | epot = 0 | etot = 6249.99972060395
158  ekin = 6249.99972060395 | epot = 0 | etot = 6249.99972060395
159  ekin = 6249.99972060395 | epot = 0 | etot = 6249.99972060395
160  ekin = 6249.99972060395 | epot = 0 | etot = 6249.99972060395
161  ekin = 6249.99972060395 | epot = 0 | etot = 6249.99972060395
162  ekin = 6249.99972060395 | epot = 0 | etot = 6249.99972060395
163  ekin = 6249.99972060395 | epot = 0 | etot = 6249.99972060395
164  ekin = 6249.99972060395 | epot = 0 | etot = 6249.99972060395
165  ekin = 6249.99972060395 | epot = 0 | etot = 6249.99972060395
166  ekin = 6249.99972060395 | epot = 0 | etot = 6249.99972060395
167  ekin = 6249.99972060395 | epot = 0 | etot = 6249.99972060395
168  ekin = 6249.99972060395 | epot = 0 | etot = 6249.99972060395
169  ekin = 6249.99972060395 | epot = 0 | etot = 6249.99972060395
170  ekin = 6249.99972060395 | epot = 0 | etot = 6249.99972060395
171  ekin = 6249.99972060395 | epot = 0 | etot = 6249.99972060395
172  ekin = 6249.99972060395 | epot = 0 | etot = 6249.99972060395
173  ekin = 6249.99972060395 | epot = 0 | etot = 6249.99972060395
174  ekin = 6249.99972060395 | epot = 0 | etot = 6249.99972060395
175  ekin = 6249.99972060395 | epot = 0 | etot = 6249.99972060395
176  ekin = 6249.99972060395 | epot = 0 | etot = 6249.99972060395
177  ekin = 6249.99972060395 | epot = 0 | etot = 6249.99972060395
178  ekin = 6249.99972060395 | epot = 0 | etot = 6249.99972060395
179  ekin = 6249.99972060395 | epot = 0 | etot = 6249.99972060395
180  ekin = 6249.99972060395 | epot = 0 | etot = 6249.99972060395
181  ekin = 6249.99972060395 | epot = 0 | etot = 6249.99972060395
182  ekin = 6249.99972060395 | epot = 0 | etot = 6249.99972060395
183  ekin = 6249.99972060395 | epot = 0 | etot = 6249.99972060395
184  ekin = 6249.99972060395 | epot = 0 | etot = 6249.99972060395
185  ekin = 6249.99972060395 | epot = 0 | etot = 6249.99972060395
186  ekin = 6249.99972060395 | epot = 0 | etot = 6249.99972060395
187  ekin = 6249.99972060395 | epot = 0 | etot = 6249.99972060395
188  ekin = 6249.99972060395 | epot = 0 | etot = 6249.99972060395
189  ekin = 6249.99972060395 | epot = 0 | etot = 6249.99972060395
190  ekin = 6249.99972060395 | epot = 0 | etot = 6249.99972060395
191  ekin = 6249.99972060395 | epot = 0 | etot = 6249.99972060395
192  ekin = 6249.99972060395 | epot = 0 | etot = 6249.99972060395
193  ekin = 6249.99972060395 | epot = 0 | etot = 6249.99972060395
194  ekin = 6249.99972060395 | epot = 0 | etot = 6249.99972060395
195  ekin = 6249.99972060395 | epot = 0 | etot = 6249.99972060395
196  ekin = 6249.99972060395 | epot = 0 | etot = 6249.99972060395
197  ekin = 6249.99972060395 | epot = 0 | etot = 6249.99972060395
198  ekin = 6249.99972060395 | epot = 0 | etot = 6249.99972060395
199  ekin = 6249.99972060395 | epot = 0 | etot = 6249.99972060395
200  ekin = 6249.99972060395 | epot = 0 | etot = 6249.99972060395
201  ekin = 6249.99972060395 | epot = 0 | etot = 6249.99972060395
202  ekin = 6249.99972060395 | epot = 0 | etot = 6249.99972060395
203  ekin = 6249.99972060395 | epot = 0 | etot = 6249.99972060395
204  ekin = 6249.99972060395 | epot = 0 | etot = 6249.99972060395
205  ekin = 6249.99972060395 | epot = 0 | etot = 6249.99972060395
206  ekin = 6249.99972060395 | epot = 0 | etot = 6249.99972060395
207  ekin = 6249.99972060395 | epot = 0 | etot = 6249.99972060395
208  ekin = 6249.99972060395 | epot = 0 | etot = 6249.99972060395
209  ekin = 6249.99972060395 | epot = 0 | etot = 6249.99972060395
210  ekin = 6249.99972060395 | epot = 0 | etot = 6249.99972060395
211  ekin = 6249.99972060395 | epot = 0 | etot = 6249.99972060395
212  ekin = 6249.99972060395 | epot = 0 | etot = 6249.99972060395
213  ekin = 6249.99972060395 | epot = 0 | etot = 6249.99972060395
214  ekin = 6249.99972060395 | epot = 0 | etot = 6249.99972060395
215  ekin = 6249.99972060395 | epot = 0 | etot = 6249.99972060395
216  ekin = 6249.99972060395 | epot = 0 | etot = 6249.99972060395
217  ekin = 6249.99972060395 | epot = 0 | etot = 6249.99972060395
218  ekin = 6249.99972060395 | epot = 0 | etot = 6249.99972060395
219  ekin = 6249.99972060395 | epot = 0 | etot = 6249.99972060395
220  ekin = 6249.99972060395 | epot = 0 | etot = 6249.99972060395
221  ekin = 6249.99972060395 | epot = 0 | etot = 6249.99972060395
222  ekin = 6249.99972060395 | epot = 0 | etot = 6249.99972060395
223  ekin = 6249.99972060395 | epot = 0 | etot = 6249.99972060395
224  ekin = 6249.99972060395 | epot = 0 | etot = 6249.99972060395
225  ekin = 6249.99972060395 | epot = 0 | etot = 6249.99972060395
226  ekin = 6249.99972060395 | epot = 0 | etot = 6249.99972060395
227  ekin = 6249.99972060395 | epot = 0 | etot = 6249.99972060395
228  ekin = 6249.99972060395 | epot = 0 | etot = 6249.99972060395
229  ekin = 6249.99972060395 | epot = 0 | etot = 6249.99972060395
230  ekin = 6249.99972060395 | epot = 0 | etot = 6249.99972060395
231  ekin = 6249.99972060395 | epot = 0 | etot = 6249.99972060395
232  ekin = 6249.99972060395 | epot = 0 | etot = 6249.99972060395
233  ekin = 6249.99972060395 | epot = 0 | etot = 6249.99972060395
234  ekin = 6249.99972060395 | epot = 0 | etot = 6249.99972060395
235  ekin = 6249.99972060395 | epot = 0 | etot = 6249.99972060395
236  ekin = 6249.99972060395 | epot = 0 | etot = 6249.99972060395
237  ekin = 6249.99972060395 | epot = 0 | etot = 6249.99972060395
238  ekin = 6249.99972060395 | epot = 0 | etot = 6249.99972060395
239  ekin = 6249.99972060395 | epot = 0 | etot = 6249.99972060395
240  ekin = 6249.99972060395 | epot = 0 | etot = 6249.99972060395
241  ekin = 6249.99972060395 | epot = 0 | etot = 6249.99972060395
242  ekin = 6249.99972060395 | epot = 0 | etot = 6249.99972060395
243  ekin = 6249.99972060395 | epot = 0 | etot = 6249.99972060395
244  ekin = 6249.99972060395 | epot = 0 | etot = 6249.99972060395
245  ekin = 6249.99972060395 | epot = 0 | etot = 6249.99972060395
246  ekin = 6249.99972060395 | epot = 0 | etot = 6249.99972060395
247  ekin = 6249.99972060395 | epot = 0 | etot = 6249.99972060395
248  ekin = 6249.99972060395 | epot = 0 | etot = 6249.99972060395
249  ekin = 6249.99972060395 | epot = 0 | etot = 6249.99972060395
250  ekin = 6249.99972060395 | epot = 0 | etot = 6249.99972060395
251  ekin = 6249.99972060395 | epot = 0 | etot = 6249.99972060395
252  ekin = 6249.99972060395 | epot = 0 | etot = 6249.99972060395
253  ekin = 6249.99972060395 | epot = 0 | etot = 6249.99972060395
254  ekin = 6249.99972060395 | epot = 0 | etot = 6249.99972060395
255  ekin = 6249.99972060395 | epot = 0 | etot = 6249.99972060395
256  ekin = 6249.99972060395 | epot = 0 | etot = 6249.99972060395
257  ekin = 6249.99972060395 | epot = 0 | etot = 6249.99972060395
258  ekin = 6249.99972060395 | epot = 0 | etot = 6249.99972060395
259  ekin = 6249.99972060395 | epot = 0 | etot = 6249.99972060395
260  ekin = 6249.99972060395 | epot = 0 | etot = 6249.99972060395
261  ekin = 6249.99972060395 | epot = 0 | etot = 6249.99972060395
262  ekin = 6249.99972060395 | epot = 0 | etot = 6249.99972060395
263  ekin = 6249.99972060395 | epot = 0 | etot = 6249.99972060395
264  ekin = 6249.99972060395 | epot = 0 | etot = 6249.99972060395
265  ekin = 6249.99972060395 | epot = 0 | etot = 6249.99972060395
266  ekin = 6249.99972060395 | epot = 0 | etot = 6249.99972060395
267  ekin = 6249.99972060395 | epot = 0 | etot = 6249.99972060395
268  ekin = 6249.99972060395 | epot = 0 | etot = 6249.99972060395
269  ekin = 6249.99972060395 | epot = 0 | etot = 6249.99972060395
270  ekin = 6249.99972060395 | epot = 0 | etot = 6249.99972060395
271  ekin = 6249.99972060395 | epot = 0 | etot = 6249.99972060395
272  ekin = 6249.99972060395 | epot = 0 | etot = 6249.99972060395
273  ekin = 6249.99972060395 | epot = 0 | etot = 6249.99972060395
274  ekin = 6249.99972060395 | epot = 0 | etot = 6249.99972060395
275  ekin = 6249.99972060395 | epot = 0 | etot = 6249.99972060395
276  ekin = 6249.99972060395 | epot = 0 | etot = 6249.99972060395
277  ekin = 6249.99972060395 | epot = 0 | etot = 6249.99972060395
278  ekin = 6249.99972060395 | epot = 0 | etot = 6249.99972060395
279  ekin = 6249.99972060395 | epot = 0 | etot = 6249.99972060395
280  ekin = 6249.99972060395 | epot = 0 | etot = 6249.99972060395
281  ekin = 6249.99972060395 | epot = 0 | etot = 6249.99972060395
282  ekin = 6249.99972060395 | epot = 0 | etot = 6249.99972060395
283  ekin = 6249.99972060395 | epot = 0 | etot = 6249.99972060395
284  ekin = 6249.99972060395 | epot = 0 | etot = 6249.99972060395
285  ekin = 6249.99972060395 | epot = 0 | etot = 6249.99972060395
286  ekin = 6249.99972060395 | epot = 0 | etot = 6249.99972060395
287  ekin = 6249.99972060395 | epot = 0 | etot = 6249.99972060395
288  ekin = 6249.99972060395 | epot = 0 | etot = 6249.99972060395
289  ekin = 6249.99972060395 | epot = 0 | etot = 6249.99972060395
290  ekin = 6249.99972060395 | epot = 0 | etot = 6249.99972060395
291  ekin = 6249.99972060395 | epot = 0 | etot = 6249.99972060395
292  ekin = 6249.99972060395 | epot = 0 | etot = 6249.99972060395
293  ekin = 6249.99972060395 | epot = 0 | etot = 6249.99972060395
294  ekin = 6249.99972060395 | epot = 0 | etot = 6249.99972060395
295  ekin = 6249.99972060395 | epot = 0 | etot = 6249.99972060395
296  ekin = 6249.99972060395 | epot = 0 | etot = 6249.99972060395
297  ekin = 6249.99972060395 | epot = 0 | etot = 6249.99972060395
298  ekin = 6249.99972060395 | epot = 0 | etot = 6249.99972060395
299  ekin = 6249.99972060395 | epot = 0 | etot = 6249.99972060395
300  ekin = 6249.99972060395 | epot = 0 | etot = 6249.99972060395
301  ekin = 6249.99972060395 | epot = 0 | etot = 6249.99972060395
302  ekin = 6249.99972060395 | epot = 0 | etot = 6249.99972060395
303  ekin = 6249.99972060395 | epot = 0 | etot = 6249.99972060395
304  ekin = 6249.99972060395 | epot = 0 | etot = 6249.99972060395
305  ekin = 6249.99972060395 | epot = 0 | etot = 6249.99972060395
306  ekin = 6249.99972060395 | epot = 0 | etot = 6249.99972060395
307  ekin = 6249.99972060395 | epot = 0 | etot = 6249.99972060395
308  ekin = 6249.99972060395 | epot = 0 | etot = 6249.99972060395
309  ekin = 6249.99972060395 | epot = 0 | etot = 6249.99972060395
310  ekin = 6249.99972060395 | epot = 0 | etot = 6249.99972060395
311  ekin = 6249.99972060395 | epot = 0 | etot = 6249.99972060395
312  ekin = 6249.99972060395 | epot = 0 | etot = 6249.99972060395
313  ekin = 6249.99972060395 | epot = 0 | etot = 6249.99972060395
314  ekin = 6249.99972060395 | epot = 0 | etot = 6249.99972060395
315  ekin = 6249.99972060395 | epot = 0 | etot = 6249.99972060395
316  ekin = 6249.99972060395 | epot = 0 | etot = 6249.99972060395
317  ekin = 6249.99972060395 | epot = 0 | etot = 6249.99972060395
318  ekin = 6249.99972060395 | epot = 0 | etot = 6249.99972060395
319  ekin = 6249.99972060395 | epot = 0 | etot = 6249.99972060395
320  ekin = 6249.99972060395 | epot = 0 | etot = 6249.99972060395
321  ekin = 6249.99972060395 | epot = 0 | etot = 6249.99972060395
322  ekin = 6249.99972060395 | epot = 0 | etot = 6249.99972060395
323  ekin = 6249.99972060395 | epot = 0 | etot = 6249.99972060395
324  ekin = 6249.99972060395 | epot = 0 | etot = 6249.99972060395
325  ekin = 6249.99972060395 | epot = 0 | etot = 6249.99972060395
326  ekin = 6249.99972060395 | epot = 0 | etot = 6249.99972060395
327  ekin = 6249.99972060395 | epot = 0 | etot = 6249.99972060395
328  ekin = 6249.99972060395 | epot = 0 | etot = 6249.99972060395
329  ekin = 6249.99972060395 | epot = 0 | etot = 6249.99972060395
330  ekin = 6249.99972060395 | epot = 0 | etot = 6249.99972060395
331  ekin = 6249.99972060395 | epot = 0 | etot = 6249.99972060395
332  ekin = 6249.99972060395 | epot = 0 | etot = 6249.99972060395
333  ekin = 6249.99972060395 | epot = 0 | etot = 6249.99972060395
334  ekin = 6249.99972060395 | epot = 0 | etot = 6249.99972060395
335  ekin = 6249.99972060395 | epot = 0 | etot = 6249.99972060395
336  ekin = 6249.99972060395 | epot = 0 | etot = 6249.99972060395
337  ekin = 6249.99972060395 | epot = 0 | etot = 6249.99972060395
338  ekin = 6249.99972060395 | epot = 0 | etot = 6249.99972060395
339  ekin = 6249.99972060395 | epot = 0 | etot = 6249.99972060395
340  ekin = 6249.99972060395 | epot = 0 | etot = 6249.99972060395
341  ekin = 6249.99972060395 | epot = 0 | etot = 6249.99972060395
342  ekin = 6249.99972060395 | epot = 0 | etot = 6249.99972060395
343  ekin = 6249.99972060395 | epot = 0 | etot = 6249.99972060395
344  ekin = 6249.99972060395 | epot = 0 | etot = 6249.99972060395
345  ekin = 6249.99972060395 | epot = 0 | etot = 6249.99972060395
346  ekin = 6249.99972060395 | epot = 0 | etot = 6249.99972060395
347  ekin = 6249.99972060395 | epot = 0 | etot = 6249.99972060395
348  ekin = 6249.99972060395 | epot = 0 | etot = 6249.99972060395
349  ekin = 6249.99972060395 | epot = 0 | etot = 6249.99972060395
350  ekin = 6249.99972060395 | epot = 0 | etot = 6249.99972060395
351  ekin = 6249.99972060395 | epot = 0 | etot = 6249.99972060395
352  ekin = 6249.99972060395 | epot = 0 | etot = 6249.99972060395
353  ekin = 6249.99972060395 | epot = 0 | etot = 6249.99972060395
354  ekin = 6249.99972060395 | epot = 0 | etot = 6249.99972060395
355  ekin = 6249.99972060395 | epot = 0 | etot = 6249.99972060395
356  ekin = 6249.99972060395 | epot = 0 | etot = 6249.99972060395
357  ekin = 6249.99972060395 | epot = 0 | etot = 6249.99972060395
358  ekin = 6249.99972060395 | epot = 0 | etot = 6249.99972060395
359  ekin = 6249.99972060395 | epot = 0 | etot = 6249.99972060395
360  ekin = 6249.99972060395 | epot = 0 | etot = 6249.99972060395
361  ekin = 6249.99972060395 | epot = 0 | etot = 6249.99972060395
362  ekin = 6249.99972060395 | epot = 0 | etot = 6249.99972060395
363  ekin = 6249.99972060395 | epot = 0 | etot = 6249.99972060395
364  ekin = 6249.99972060395 | epot = 0 | etot = 6249.99972060395
365  ekin = 6249.99972060395 | epot = 0 | etot = 6249.99972060395
366  ekin = 6249.99972060395 | epot = 0 | etot = 6249.99972060395
367  ekin = 6249.99972060395 | epot = 0 | etot = 6249.99972060395
368  ekin = 6249.99972060395 | epot = 0 | etot = 6249.99972060395
369  ekin = 6249.99972060395 | epot = 0 | etot = 6249.99972060395
370  ekin = 6249.99972060395 | epot = 0 | etot = 6249.99972060395
371  ekin = 6249.99972060395 | epot = 0 | etot = 6249.99972060395
372  ekin = 6249.99972060395 | epot = 0 | etot = 6249.99972060395
373  ekin = 6249.99972060395 | epot = 0 | etot = 6249.99972060395
374  ekin = 6249.99972060395 | epot = 0 | etot = 6249.99972060395
375  ekin = 6249.99972060395 | epot = 0 | etot = 6249.99972060395
376  ekin = 6249.99972060395 | epot = 0 | etot = 6249.99972060395
377  ekin = 6249.99972060395 | epot = 0 | etot = 6249.99972060395
378  ekin = 6249.99972060395 | epot = 0 | etot = 6249.99972060395
379  ekin = 6249.99972060395 | epot = 0 | etot = 6249.99972060395
380  ekin = 6249.99972060395 | epot = 0 | etot = 6249.99972060395
381  ekin = 6249.99972060395 | epot = 0 | etot = 6249.99972060395
382  ekin = 6249.99972060395 | epot = 0 | etot = 6249.99972060395
383  ekin = 6249.99972060395 | epot = 0 | etot = 6249.99972060395
384  ekin = 6249.99972060395 | epot = 0 | etot = 6249.99972060395
385  ekin = 6249.99972060395 | epot = 0 | etot = 6249.99972060395
386  ekin = 6249.99972060395 | epot = 0 | etot = 6249.99972060395
387  ekin = 6249.99972060395 | epot = 0 | etot = 6249.99972060395
388  ekin = 6249.99972060395 | epot = 0 | etot = 6249.99972060395
389  ekin = 6249.99972060395 | epot = 0 | etot = 6249.99972060395
390  ekin = 6249.99972060395 | epot = 0 | etot = 6249.99972060395
391  ekin = 6249.99972060395 | epot = 0 | etot = 6249.99972060395
392  ekin = 6249.99972060395 | epot = 0 | etot = 6249.99972060395
393  ekin = 6249.99972060395 | epot = 0 | etot = 6249.99972060395
394  ekin = 6249.99972060395 | epot = 0 | etot = 6249.99972060395
395  ekin = 6249.99972060395 | epot = 0 | etot = 6249.99972060395
396  ekin = 6249.99972060395 | epot = 0 | etot = 6249.99972060395
397  ekin = 6249.99972060395 | epot = 0 | etot = 6249.99972060395
398  ekin = 6249.99972060395 | epot = 0 | etot = 6249.99972060395
399  ekin = 6249.99972060395 | epot = 0 | etot = 6249.99972060395
400  ekin = 6249.99972060395 | epot = 0 | etot = 6249.99972060395
401  ekin = 6249.99972060395 | epot = 0 | etot = 6249.99972060395
402  ekin = 6249.99972060395 | epot = 0 | etot = 6249.99972060395
403  ekin = 6249.99972060395 | epot = 0 | etot = 6249.99972060395
404  ekin = 6249.99972060395 | epot = 0 | etot = 6249.99972060395
405  ekin = 6249.99972060395 | epot = 0 | etot = 6249.99972060395
406  ekin = 6249.99972060395 | epot = 0 | etot = 6249.99972060395
407  ekin = 6249.99972060395 | epot = 0 | etot = 6249.99972060395
408  ekin = 6249.99972060395 | epot = 0 | etot = 6249.99972060395
409  ekin = 6249.99972060395 | epot = 0 | etot = 6249.99972060395
410  ekin = 6249.99972060395 | epot = 0 | etot = 6249.99972060395
411  ekin = 6249.99972060395 | epot = 0 | etot = 6249.99972060395
412  ekin = 6249.99972060395 | epot = 0 | etot = 6249.99972060395
413  ekin = 6249.99972060395 | epot = 0 | etot = 6249.99972060395
414  ekin = 6249.99972060395 | epot = 0 | etot = 6249.99972060395
415  ekin = 6249.99972060395 | epot = 0 | etot = 6249.99972060395
416  ekin = 6249.99972060395 | epot = 0 | etot = 6249.99972060395
417  ekin = 6249.99972060395 | epot = 0 | etot = 6249.99972060395
418  ekin = 6249.99972060395 | epot = 0 | etot = 6249.99972060395
419  ekin = 6249.99972060395 | epot = 0 | etot = 6249.99972060395
420  ekin = 6249.99972060395 | epot = 0 | etot = 6249.99972060395
421  ekin = 6249.99972060395 | epot = 0 | etot = 6249.99972060395
422  ekin = 6249.99972060395 | epot = 0 | etot = 6249.99972060395
423  ekin = 6249.99972060395 | epot = 0 | etot = 6249.99972060395
424  ekin = 6249.99972060395 | epot = 0 | etot = 6249.99972060395
425  ekin = 6249.99972060395 | epot = 0 | etot = 6249.99972060395
426  ekin = 6249.99972060395 | epot = 0 | etot = 6249.99972060395
427  ekin = 6249.99972060395 | epot = 0 | etot = 6249.99972060395
428  ekin = 6249.99972060395 | epot = 0 | etot = 6249.99972060395
429  ekin = 6249.99972060395 | epot = 0 | etot = 6249.99972060395
430  ekin = 6249.99972060395 | epot = 0 | etot = 6249.99972060395
431  ekin = 6249.99972060395 | epot = 0 | etot = 6249.99972060395
432  ekin = 6249.99972060395 | epot = 0 | etot = 6249.99972060395
433  ekin = 6249.99972060395 | epot = 0 | etot = 6249.99972060395
434  ekin = 6249.99972060395 | epot = 0 | etot = 6249.99972060395
435  ekin = 6249.99972060395 | epot = 0 | etot = 6249.99972060395
436  ekin = 6249.99972060395 | epot = 0 | etot = 6249.99972060395
437  ekin = 6249.99972060395 | epot = 0 | etot = 6249.99972060395
438  ekin = 6249.99972060395 | epot = 0 | etot = 6249.99972060395
439  ekin = 6249.99972060395 | epot = 0 | etot = 6249.99972060395
440  ekin = 6249.99972060395 | epot = 0 | etot = 6249.99972060395
441  ekin = 6249.99972060395 | epot = 0 | etot = 6249.99972060395
442  ekin = 6249.99972060395 | epot = 0 | etot = 6249.99972060395
443  ekin = 6249.99972060395 | epot = 0 | etot = 6249.99972060395
444  ekin = 6249.99972060395 | epot = 0 | etot = 6249.99972060395
445  ekin = 6249.99972060395 | epot = 0 | etot = 6249.99972060395
446  ekin = 6249.99972060395 | epot = 0 | etot = 6249.99972060395
447  ekin = 6249.99972060395 | epot = 0 | etot = 6249.99972060395
448  ekin = 6249.99972060395 | epot = 0 | etot = 6249.99972060395
449  ekin = 6249.99972060395 | epot = 0 | etot = 6249.99972060395
450  ekin = 6249.99972060395 | epot = 0 | etot = 6249.99972060395
451  ekin = 6249.99972060395 | epot = 0 | etot = 6249.99972060395
452  ekin = 6249.99972060395 | epot = 0 | etot = 6249.99972060395
453  ekin = 6249.99972060395 | epot = 0 | etot = 6249.99972060395
454  ekin = 6249.99972060395 | epot = 0 | etot = 6249.99972060395
455  ekin = 6249.99972060395 | epot = 0 | etot = 6249.99972060395
456  ekin = 6249.99972060395 | epot = 0 | etot = 6249.99972060395
457  ekin = 6249.99972060395 | epot = 0 | etot = 6249.99972060395
458  ekin = 6249.99972060395 | epot = 0 | etot = 6249.99972060395
459  ekin = 6249.99972060395 | epot = 0 | etot = 6249.99972060395
460  ekin = 6249.99972060395 | epot = 0 | etot = 6249.99972060395
461  ekin = 6249.99972060395 | epot = 0 | etot = 6249.99972060395
462  ekin = 6249.99972060395 | epot = 0 | etot = 6249.99972060395
463  ekin = 6249.99972060395 | epot = 0 | etot = 6249.99972060395
464  ekin = 6249.99972060395 | epot = 0 | etot = 6249.99972060395
465  ekin = 6249.99972060395 | epot = 0 | etot = 6249.99972060395
466  ekin = 6249.99972060395 | epot = 0 | etot = 6249.99972060395
467  ekin = 6249.99972060395 | epot = 0 | etot = 6249.99972060395
468  ekin = 6249.99972060395 | epot = 0 | etot = 6249.99972060395
469  ekin = 6249.99972060395 | epot = 0 | etot = 6249.99972060395
470  ekin = 6249.99972060395 | epot = 0 | etot = 6249.99972060395
471  ekin = 6249.99972060395 | epot = 0 | etot = 6249.99972060395
472  ekin = 6249.99972060395 | epot = 0 | etot = 6249.99972060395
473  ekin = 6249.99972060395 | epot = 0 | etot = 6249.99972060395
474  ekin = 6249.99972060395 | epot = 0 | etot = 6249.99972060395
475  ekin = 6249.99972060395 | epot = 0 | etot = 6249.99972060395
476  ekin = 6249.99972060395 | epot = 0 | etot = 6249.99972060395
477  ekin = 6249.99972060395 | epot = 0 | etot = 6249.99972060395
478  ekin = 6249.99972060395 | epot = 0 | etot = 6249.99972060395
479  ekin = 6249.99972060395 | epot = 0 | etot = 6249.99972060395
480  ekin = 6249.99972060395 | epot = 0 | etot = 6249.99972060395
481  ekin = 6249.99972060395 | epot = 0 | etot = 6249.99972060395
482  ekin = 6249.99972060395 | epot = 0 | etot = 6249.99972060395
483  ekin = 6249.99972060395 | epot = 0 | etot = 6249.99972060395
484  ekin = 6249.99972060395 | epot = 0 | etot = 6249.99972060395
485  ekin = 6249.99972060395 | epot = 0 | etot = 6249.99972060395
486  ekin = 6249.99972060395 | epot = 0 | etot = 6249.99972060395
487  ekin = 6249.99972060395 | epot = 0 | etot = 6249.99972060395
488  ekin = 6249.99972060395 | epot = 0 | etot = 6249.99972060395
489  ekin = 6249.99972060395 | epot = 0 | etot = 6249.99972060395
490  ekin = 6249.99972060395 | epot = 0 | etot = 6249.99972060395
491  ekin = 6249.99972060395 | epot = 0 | etot = 6249.99972060395
492  ekin = 6249.99972060395 | epot = 0 | etot = 6249.99972060395
493  ekin = 6249.99972060395 | epot = 0 | etot = 6249.99972060395
494  ekin = 6249.99972060395 | epot = 0 | etot = 6249.99972060395
495  ekin = 6249.99972060395 | epot = 0 | etot = 6249.99972060395
496  ekin = 6249.99972060395 | epot = 0 | etot = 6249.99972060395
497  ekin = 6249.99972060395 | epot = 0 | etot = 6249.99972060395
498  ekin = 6249.99972060395 | epot = 0 | etot = 6249.99972060395
499  ekin = 6249.99972060395 | epot = 0 | etot = 6249.99972060395
500  ekin = 6249.99972060395 | epot = 0 | etot = 6249.99972060395
501  ekin = 6249.99972060395 | epot = 0 | etot = 6249.99972060395
502  ekin = 6249.99972060395 | epot = 0 | etot = 6249.99972060395
503  ekin = 6249.99972060395 | epot = 0 | etot = 6249.99972060395
504  ekin = 6249.99972060395 | epot = 0 | etot = 6249.99972060395
505  ekin = 6249.99972060395 | epot = 0 | etot = 6249.99972060395
506  ekin = 6249.99972060395 | epot = 0 | etot = 6249.99972060395
507  ekin = 6249.99972060395 | epot = 0 | etot = 6249.99972060395
508  ekin = 6249.99972060395 | epot = 0 | etot = 6249.99972060395
509  ekin = 6249.99972060395 | epot = 0 | etot = 6249.99972060395
510  ekin = 6249.99972060395 | epot = 0 | etot = 6249.99972060395
511  ekin = 6249.99972060395 | epot = 0 | etot = 6249.99972060395
512  ekin = 6249.99972060395 | epot = 0 | etot = 6249.99972060395
513  ekin = 6249.99972060395 | epot = 0 | etot = 6249.99972060395
514  ekin = 6249.99972060395 | epot = 0 | etot = 6249.99972060395
515  ekin = 6249.99972060395 | epot = 0 | etot = 6249.99972060395
516  ekin = 6249.99972060395 | epot = 0 | etot = 6249.99972060395
517  ekin = 6249.99972060395 | epot = 0 | etot = 6249.99972060395
518  ekin = 6249.99972060395 | epot = 0 | etot = 6249.99972060395
519  ekin = 6249.99972060395 | epot = 0 | etot = 6249.99972060395
520  ekin = 6249.99972060395 | epot = 0 | etot = 6249.99972060395
521  ekin = 6249.99972060395 | epot = 0 | etot = 6249.99972060395
522  ekin = 6249.99972060395 | epot = 0 | etot = 6249.99972060395
523  ekin = 6249.99972060395 | epot = 0 | etot = 6249.99972060395
524  ekin = 6249.99972060395 | epot = 0 | etot = 6249.99972060395
525  ekin = 6249.99972060395 | epot = 0 | etot = 6249.99972060395
526  ekin = 6249.99972060395 | epot = 0 | etot = 6249.99972060395
527  ekin = 6249.99972060395 | epot = 0 | etot = 6249.99972060395
528  ekin = 6249.99972060395 | epot = 0 | etot = 6249.99972060395
529  ekin = 6249.99972060395 | epot = 0 | etot = 6249.99972060395
530  ekin = 6249.99972060395 | epot = 0 | etot = 6249.99972060395
531  ekin = 6249.99972060395 | epot = 0 | etot = 6249.99972060395
532  ekin = 6249.99972060395 | epot = 0 | etot = 6249.99972060395
533  ekin = 6249.99972060395 | epot = 0 | etot = 6249.99972060395
534  ekin = 6249.99972060395 | epot = 0 | etot = 6249.99972060395
535  ekin = 6249.99972060395 | epot = 0 | etot = 6249.99972060395
536  ekin = 6249.99972060395 | epot = 0 | etot = 6249.99972060395
537  ekin = 6249.99972060395 | epot = 0 | etot = 6249.99972060395
538  ekin = 6249.99972060395 | epot = 0 | etot = 6249.99972060395
539  ekin = 6249.99972060395 | epot = 0 | etot = 6249.99972060395
540  ekin = 6249.99972060395 | epot = 0 | etot = 6249.99972060395
541  ekin = 6249.99972060395 | epot = 0 | etot = 6249.99972060395
542  ekin = 6249.99972060395 | epot = 0 | etot = 6249.99972060395
543  ekin = 6249.99972060395 | epot = 0 | etot = 6249.99972060395
544  ekin = 6249.99972060395 | epot = 0 | etot = 6249.99972060395
545  ekin = 6249.99972060395 | epot = 0 | etot = 6249.99972060395
546  ekin = 6249.99972060395 | epot = 0 | etot = 6249.99972060395
547  ekin = 6249.99972060395 | epot = 0 | etot = 6249.99972060395
548  ekin = 6249.99972060395 | epot = 0 | etot = 6249.99972060395
549  ekin = 6249.99972060395 | epot = 0 | etot = 6249.99972060395
550  ekin = 6249.99972060395 | epot = 0 | etot = 6249.99972060395
551  ekin = 6249.99972060395 | epot = 0 | etot = 6249.99972060395
552  ekin = 6249.99972060395 | epot = 0 | etot = 6249.99972060395
553  ekin = 6249.99972060395 | epot = 0 | etot = 6249.99972060395
554  ekin = 6249.99972060395 | epot = 0 | etot = 6249.99972060395
555  ekin = 6249.99972060395 | epot = 0 | etot = 6249.99972060395
556  ekin = 6249.99972060395 | epot = 0 | etot = 6249.99972060395
557  ekin = 6249.99972060395 | epot = 0 | etot = 6249.99972060395
558  ekin = 6249.99972060395 | epot = 0 | etot = 6249.99972060395
559  ekin = 6249.99972060395 | epot = 0 | etot = 6249.99972060395
560  ekin = 6249.99972060395 | epot = 0 | etot = 6249.99972060395
561  ekin = 6249.99972060395 | epot = 0 | etot = 6249.99972060395
562  ekin = 6249.99972060395 | epot = 0 | etot = 6249.99972060395
563  ekin = 6249.99972060395 | epot = 0 | etot = 6249.99972060395
564  ekin = 6249.99972060395 | epot = 0 | etot = 6249.99972060395
565  ekin = 6249.99972060395 | epot = 0 | etot = 6249.99972060395
566  ekin = 6249.99972060395 | epot = 0 | etot = 6249.99972060395
567  ekin = 6249.99972060395 | epot = 0 | etot = 6249.99972060395
568  ekin = 6249.99972060395 | epot = 0 | etot = 6249.99972060395
569  ekin = 6249.99972060395 | epot = 0 | etot = 6249.99972060395
570  ekin = 6249.99972060395 | epot = 0 | etot = 6249.99972060395
571  ekin = 6249.99972060395 | epot = 0 | etot = 6249.99972060395
572  ekin = 6249.99972060395 | epot = 0 | etot = 6249.99972060395
573  ekin = 6249.99972060395 | epot = 0 | etot = 6249.99972060395
574  ekin = 6249.99972060395 | epot = 0 | etot = 6249.99972060395
575  ekin = 6249.99972060395 | epot = 0 | etot = 6249.99972060395
576  ekin = 6249.99972060395 | epot = 0 | etot = 6249.99972060395
577  ekin = 6249.99972060395 | epot = 0 | etot = 6249.99972060395
578  ekin = 6249.99972060395 | epot = 0 | etot = 6249.99972060395
579  ekin = 6249.99972060395 | epot = 0 | etot = 6249.99972060395
580  ekin = 6249.99972060395 | epot = 0 | etot = 6249.99972060395
581  ekin = 6249.99972060395 | epot = 0 | etot = 6249.99972060395
582  ekin = 6249.99972060395 | epot = 0 | etot = 6249.99972060395
583  ekin = 6249.99972060395 | epot = 0 | etot = 6249.99972060395
584  ekin = 6249.99972060395 | epot = 0 | etot = 6249.99972060395
585  ekin = 6249.99972060395 | epot = 0 | etot = 6249.99972060395
586  ekin = 6249.99972060395 | epot = 0 | etot = 6249.99972060395
587  ekin = 6249.99972060395 | epot = 0 | etot = 6249.99972060395
588  ekin = 6249.99972060395 | epot = 0 | etot = 6249.99972060395
589  ekin = 6249.99972060395 | epot = 0 | etot = 6249.99972060395
590  ekin = 6249.99972060395 | epot = 0 | etot = 6249.99972060395
591  ekin = 6249.99972060395 | epot = 0 | etot = 6249.99972060395
592  ekin = 6249.99972060395 | epot = 0 | etot = 6249.99972060395
593  ekin = 6249.99972060395 | epot = 0 | etot = 6249.99972060395
594  ekin = 6249.99972060395 | epot = 0 | etot = 6249.99972060395
595  ekin = 6249.99972060395 | epot = 0 | etot = 6249.99972060395
596  ekin = 6249.99972060395 | epot = 0 | etot = 6249.99972060395
597  ekin = 6249.99972060395 | epot = 0 | etot = 6249.99972060395
598  ekin = 6249.99972060395 | epot = 0 | etot = 6249.99972060395
599  ekin = 6249.99972060395 | epot = 0 | etot = 6249.99972060395
600  ekin = 6249.99972060395 | epot = 0 | etot = 6249.99972060395
601  ekin = 6249.99972060395 | epot = 0 | etot = 6249.99972060395
602  ekin = 6249.99972060395 | epot = 0 | etot = 6249.99972060395
603  ekin = 6249.99972060395 | epot = 0 | etot = 6249.99972060395
604  ekin = 6249.99972060395 | epot = 0 | etot = 6249.99972060395
605  ekin = 6249.99972060395 | epot = 0 | etot = 6249.99972060395
606  ekin = 6249.99972060395 | epot = 0 | etot = 6249.99972060395
607  ekin = 6249.99972060395 | epot = 0 | etot = 6249.99972060395
608  ekin = 6249.99972060395 | epot = 0 | etot = 6249.99972060395
609  ekin = 6249.99972060395 | epot = 0 | etot = 6249.99972060395
610  ekin = 6249.99972060395 | epot = 0 | etot = 6249.99972060395
611  ekin = 6249.99972060395 | epot = 0 | etot = 6249.99972060395
612  ekin = 6249.99972060395 | epot = 0 | etot = 6249.99972060395
613  ekin = 6249.99972060395 | epot = 0 | etot = 6249.99972060395
614  ekin = 6249.99972060395 | epot = 0 | etot = 6249.99972060395
615  ekin = 6249.99972060395 | epot = 0 | etot = 6249.99972060395
616  ekin = 6249.99972060395 | epot = 0 | etot = 6249.99972060395
617  ekin = 6249.99972060395 | epot = 0 | etot = 6249.99972060395
618  ekin = 6249.99972060395 | epot = 0 | etot = 6249.99972060395
619  ekin = 6249.99972060395 | epot = 0 | etot = 6249.99972060395
620  ekin = 6249.99972060395 | epot = 0 | etot = 6249.99972060395
621  ekin = 6249.99972060395 | epot = 0 | etot = 6249.99972060395
622  ekin = 6249.99972060395 | epot = 0 | etot = 6249.99972060395
623  ekin = 6249.99972060395 | epot = 0 | etot = 6249.99972060395
624  ekin = 6249.99972060395 | epot = 0 | etot = 6249.99972060395
625  ekin = 6249.99972060395 | epot = 0 | etot = 6249.99972060395
626  ekin = 6249.99972060395 | epot = 0 | etot = 6249.99972060395
627  ekin = 6249.99972060395 | epot = 0 | etot = 6249.99972060395
628  ekin = 6249.99972060395 | epot = 0 | etot = 6249.99972060395
629  ekin = 6249.99972060395 | epot = 0 | etot = 6249.99972060395
630  ekin = 6249.99972060395 | epot = 0 | etot = 6249.99972060395
631  ekin = 6249.99972060395 | epot = 0 | etot = 6249.99972060395
632  ekin = 6249.99972060395 | epot = 0 | etot = 6249.99972060395
633  ekin = 6249.99972060395 | epot = 0 | etot = 6249.99972060395
634  ekin = 6249.99972060395 | epot = 0 | etot = 6249.99972060395
635  ekin = 6249.99972060395 | epot = 0 | etot = 6249.99972060395
636  ekin = 6249.99972060395 | epot = 0 | etot = 6249.99972060395
637  ekin = 6249.99972060395 | epot = 0 | etot = 6249.99972060395
638  ekin = 6249.99972060395 | epot = 0 | etot = 6249.99972060395
639  ekin = 6249.99972060395 | epot = 0 | etot = 6249.99972060395
640  ekin = 6249.99972060395 | epot = 0 | etot = 6249.99972060395
641  ekin = 6249.99972060395 | epot = 0 | etot = 6249.99972060395
642  ekin = 6249.99972060395 | epot = 0 | etot = 6249.99972060395
643  ekin = 6249.99972060395 | epot = 0 | etot = 6249.99972060395
644  ekin = 6249.99972060395 | epot = 0 | etot = 6249.99972060395
645  ekin = 6249.99972060395 | epot = 0 | etot = 6249.99972060395
646  ekin = 6249.99972060395 | epot = 0 | etot = 6249.99972060395
647  ekin = 6249.99972060395 | epot = 0 | etot = 6249.99972060395
648  ekin = 6249.99972060395 | epot = 0 | etot = 6249.99972060395
649  ekin = 6249.99972060395 | epot = 0 | etot = 6249.99972060395
650  ekin = 6249.99972060395 | epot = 0 | etot = 6249.99972060395
651  ekin = 6249.99972060395 | epot = 0 | etot = 6249.99972060395
652  ekin = 6249.99972060395 | epot = 0 | etot = 6249.99972060395
653  ekin = 6249.99972060395 | epot = 0 | etot = 6249.99972060395
654  ekin = 6249.99972060395 | epot = 0 | etot = 6249.99972060395
655  ekin = 6249.99972060395 | epot = 0 | etot = 6249.99972060395
656  ekin = 6249.99972060395 | epot = 0 | etot = 6249.99972060395
657  ekin = 6249.99972060395 | epot = 0 | etot = 6249.99972060395
658  ekin = 6249.99972060395 | epot = 0 | etot = 6249.99972060395
659  ekin = 6249.99972060395 | epot = 0 | etot = 6249.99972060395
660  ekin = 6249.99972060395 | epot = 0 | etot = 6249.99972060395
661  ekin = 6249.99972060395 | epot = 0 | etot = 6249.99972060395
662  ekin = 6249.99972060395 | epot = 0 | etot = 6249.99972060395
663  ekin = 6249.99972060395 | epot = 0 | etot = 6249.99972060395
664  ekin = 6249.99972060395 | epot = 0 | etot = 6249.99972060395
665  ekin = 6249.99972060395 | epot = 0 | etot = 6249.99972060395
666  ekin = 6249.99972060395 | epot = 0 | etot = 6249.99972060395
667  ekin = 6249.99972060395 | epot = 0 | etot = 6249.99972060395
668  ekin = 6249.99972060395 | epot = 0 | etot = 6249.99972060395
669  ekin = 6249.99972060395 | epot = 0 | etot = 6249.99972060395
670  ekin = 6249.99972060395 | epot = 0 | etot = 6249.99972060395
671  ekin = 6249.99972060395 | epot = 0 | etot = 6249.99972060395
672  ekin = 6249.99972060395 | epot = 0 | etot = 6249.99972060395
673  ekin = 6249.99972060395 | epot = 0 | etot = 6249.99972060395
674  ekin = 6249.99972060395 | epot = 0 | etot = 6249.99972060395
675  ekin = 6249.99972060395 | epot = 0 | etot = 6249.99972060395
676  ekin = 6249.99972060395 | epot = 0 | etot = 6249.99972060395
677  ekin = 6249.99972060395 | epot = 0 | etot = 6249.99972060395
678  ekin = 6249.99972060395 | epot = 0 | etot = 6249.99972060395
679  ekin = 6249.99972060395 | epot = 0 | etot = 6249.99972060395
680  ekin = 6249.99972060395 | epot = 0 | etot = 6249.99972060395
681  ekin = 6249.99972060395 | epot = 0 | etot = 6249.99972060395
682  ekin = 6249.99972060395 | epot = 0 | etot = 6249.99972060395
683  ekin = 6249.99972060395 | epot = 0 | etot = 6249.99972060395
684  ekin = 6249.99972060395 | epot = 0 | etot = 6249.99972060395
685  ekin = 6249.99972060395 | epot = 0 | etot = 6249.99972060395
686  ekin = 6249.99972060395 | epot = 0 | etot = 6249.99972060395
687  ekin = 6249.99972060395 | epot = 0 | etot = 6249.99972060395
688  ekin = 6249.99972060395 | epot = 0 | etot = 6249.99972060395
689  ekin = 6249.99972060395 | epot = 0 | etot = 6249.99972060395
690  ekin = 6249.99972060395 | epot = 0 | etot = 6249.99972060395
691  ekin = 6249.99972060395 | epot = 0 | etot = 6249.99972060395
692  ekin = 6249.99972060395 | epot = 0 | etot = 6249.99972060395
693  ekin = 6249.99972060395 | epot = 0 | etot = 6249.99972060395
694  ekin = 6249.99972060395 | epot = 0 | etot = 6249.99972060395
695  ekin = 6249.99972060395 | epot = 0 | etot = 6249.99972060395
696  ekin = 6249.99972060395 | epot = 0 | etot = 6249.99972060395
697  ekin = 6249.99972060395 | epot = 0 | etot = 6249.99972060395
698  ekin = 6249.99972060395 | epot = 0 | etot = 6249.99972060395
699  ekin = 6249.99972060395 | epot = 0 | etot = 6249.99972060395
700  ekin = 6249.99972060395 | epot = 0 | etot = 6249.99972060395
701  ekin = 6249.99972060395 | epot = 0 | etot = 6249.99972060395
702  ekin = 6249.99972060395 | epot = 0 | etot = 6249.99972060395
703  ekin = 6249.99972060395 | epot = 0 | etot = 6249.99972060395
704  ekin = 6249.99972060395 | epot = 0 | etot = 6249.99972060395
705  ekin = 6249.99972060395 | epot = 0 | etot = 6249.99972060395
706  ekin = 6249.99972060395 | epot = 0 | etot = 6249.99972060395
707  ekin = 6249.99972060395 | epot = 0 | etot = 6249.99972060395
708  ekin = 6249.99972060395 | epot = 0 | etot = 6249.99972060395
709  ekin = 6249.99972060395 | epot = 0 | etot = 6249.99972060395
710  ekin = 6249.99972060395 | epot = 0 | etot = 6249.99972060395
711  ekin = 6249.99972060395 | epot = 0 | etot = 6249.99972060395
712  ekin = 6249.99972060395 | epot = 0 | etot = 6249.99972060395
713  ekin = 6249.99972060395 | epot = 0 | etot = 6249.99972060395
714  ekin = 6249.99972060395 | epot = 0 | etot = 6249.99972060395
715  ekin = 6249.99972060395 | epot = 0 | etot = 6249.99972060395
716  ekin = 6249.99972060395 | epot = 0 | etot = 6249.99972060395
717  ekin = 6249.99972060395 | epot = 0 | etot = 6249.99972060395
718  ekin = 6249.99972060395 | epot = 0 | etot = 6249.99972060395
719  ekin = 6249.99972060395 | epot = 0 | etot = 6249.99972060395
720  ekin = 6249.99972060395 | epot = 0 | etot = 6249.99972060395
721  ekin = 6249.99972060395 | epot = 0 | etot = 6249.99972060395
722  ekin = 6249.99972060395 | epot = 0 | etot = 6249.99972060395
723  ekin = 6249.99972060395 | epot = 0 | etot = 6249.99972060395
724  ekin = 6249.99972060395 | epot = 0 | etot = 6249.99972060395
725  ekin = 6249.99972060395 | epot = 0 | etot = 6249.99972060395
726  ekin = 6249.99972060395 | epot = 0 | etot = 6249.99972060395
727  ekin = 6249.99972060395 | epot = 0 | etot = 6249.99972060395
728  ekin = 6249.99972060395 | epot = 0 | etot = 6249.99972060395
729  ekin = 6249.99972060395 | epot = 0 | etot = 6249.99972060395
730  ekin = 6249.99972060395 | epot = 0 | etot = 6249.99972060395
731  ekin = 6249.99972060395 | epot = 0 | etot = 6249.99972060395
732  ekin = 6249.99972060395 | epot = 0 | etot = 6249.99972060395
733  ekin = 6249.99972060395 | epot = 0 | etot = 6249.99972060395
734  ekin = 6249.99972060395 | epot = 0 | etot = 6249.99972060395
735  ekin = 6249.99972060395 | epot = 0 | etot = 6249.99972060395
736  ekin = 6249.99972060395 | epot = 0 | etot = 6249.99972060395
737  ekin = 6249.99972060395 | epot = 0 | etot = 6249.99972060395
738  ekin = 6249.99972060395 | epot = 0 | etot = 6249.99972060395
739  ekin = 6249.99972060395 | epot = 0 | etot = 6249.99972060395
740  ekin = 6249.99972060395 | epot = 0 | etot = 6249.99972060395
741  ekin = 6249.99972060395 | epot = 0 | etot = 6249.99972060395
742  ekin = 6249.99972060395 | epot = 0 | etot = 6249.99972060395
743  ekin = 6249.99972060395 | epot = 0 | etot = 6249.99972060395
744  ekin = 6249.99972060395 | epot = 0 | etot = 6249.99972060395
745  ekin = 6249.99972060395 | epot = 0 | etot = 6249.99972060395
746  ekin = 6249.99972060395 | epot = 0 | etot = 6249.99972060395
747  ekin = 6249.99972060395 | epot = 0 | etot = 6249.99972060395
748  ekin = 6249.99972060395 | epot = 0 | etot = 6249.99972060395
749  ekin = 6249.99972060395 | epot = 0 | etot = 6249.99972060395
750  ekin = 6249.99972060395 | epot = 0 | etot = 6249.99972060395
751  ekin = 6249.99972060395 | epot = 0 | etot = 6249.99972060395
752  ekin = 6249.99972060395 | epot = 0 | etot = 6249.99972060395
753  ekin = 6249.99972060395 | epot = 0 | etot = 6249.99972060395
754  ekin = 6249.99972060395 | epot = 0 | etot = 6249.99972060395
755  ekin = 6249.99972060395 | epot = 0 | etot = 6249.99972060395
756  ekin = 6249.99972060395 | epot = 0 | etot = 6249.99972060395
757  ekin = 6249.99972060395 | epot = 0 | etot = 6249.99972060395
758  ekin = 6249.99972060395 | epot = 0 | etot = 6249.99972060395
759  ekin = 6249.99972060395 | epot = 0 | etot = 6249.99972060395
760  ekin = 6249.99972060395 | epot = 0 | etot = 6249.99972060395
761  ekin = 6249.99972060395 | epot = 0 | etot = 6249.99972060395
762  ekin = 6249.99972060395 | epot = 0 | etot = 6249.99972060395
763  ekin = 6249.99972060395 | epot = 0 | etot = 6249.99972060395
764  ekin = 6249.99972060395 | epot = 0 | etot = 6249.99972060395
765  ekin = 6249.99972060395 | epot = 0 | etot = 6249.99972060395
766  ekin = 6249.99972060395 | epot = 0 | etot = 6249.99972060395
767  ekin = 6249.99972060395 | epot = 0 | etot = 6249.99972060395
768  ekin = 6249.99972060395 | epot = 0 | etot = 6249.99972060395
769  ekin = 6249.99972060395 | epot = 0 | etot = 6249.99972060395
770  ekin = 6249.99972060395 | epot = 0 | etot = 6249.99972060395
771  ekin = 6249.99972060395 | epot = 0 | etot = 6249.99972060395
772  ekin = 6249.99972060395 | epot = 0 | etot = 6249.99972060395
773  ekin = 6249.99972060395 | epot = 0 | etot = 6249.99972060395
774  ekin = 6249.99972060395 | epot = 0 | etot = 6249.99972060395
775  ekin = 6249.99972060395 | epot = 0 | etot = 6249.99972060395
776  ekin = 6249.99972060395 | epot = 0 | etot = 6249.99972060395
777  ekin = 6249.99972060395 | epot = 0 | etot = 6249.99972060395
778  ekin = 6249.99972060395 | epot = 0 | etot = 6249.99972060395
779  ekin = 6249.99972060395 | epot = 0 | etot = 6249.99972060395
780  ekin = 6249.99972060395 | epot = 0 | etot = 6249.99972060395
781  ekin = 6249.99972060395 | epot = 0 | etot = 6249.99972060395
782  ekin = 6249.99972060395 | epot = 0 | etot = 6249.99972060395
783  ekin = 6249.99972060395 | epot = 0 | etot = 6249.99972060395
784  ekin = 6249.99972060395 | epot = 0 | etot = 6249.99972060395
785  ekin = 6249.99972060395 | epot = 0 | etot = 6249.99972060395
786  ekin = 6249.99972060395 | epot = 0 | etot = 6249.99972060395
787  ekin = 6249.99972060395 | epot = 0 | etot = 6249.99972060395
788  ekin = 6249.99972060395 | epot = 0 | etot = 6249.99972060395
789  ekin = 6249.99972060395 | epot = 0 | etot = 6249.99972060395
790  ekin = 6249.99972060395 | epot = 0 | etot = 6249.99972060395
791  ekin = 6249.99972060395 | epot = 0 | etot = 6249.99972060395
792  ekin = 6249.99972060395 | epot = 0 | etot = 6249.99972060395
793  ekin = 6249.99972060395 | epot = 0 | etot = 6249.99972060395
794  ekin = 6249.99972060395 | epot = 0 | etot = 6249.99972060395
795  ekin = 6249.99972060395 | epot = 0 | etot = 6249.99972060395
796  ekin = 6249.99972060395 | epot = 0 | etot = 6249.99972060395
797  ekin = 6249.99972060395 | epot = 0 | etot = 6249.99972060395
798  ekin = 6249.99972060395 | epot = 0 | etot = 6249.99972060395
799  ekin = 6249.99972060395 | epot = 0 | etot = 6249.99972060395
800  ekin = 6249.99972060395 | epot = 0 | etot = 6249.99972060395
801  ekin = 6249.99972060395 | epot = 0 | etot = 6249.99972060395
802  ekin = 6249.99972060395 | epot = 0 | etot = 6249.99972060395
803  ekin = 6249.99972060395 | epot = 0 | etot = 6249.99972060395
804  ekin = 6249.99972060395 | epot = 0 | etot = 6249.99972060395
805  ekin = 6249.99972060395 | epot = 0 | etot = 6249.99972060395
806  ekin = 6249.99972060395 | epot = 0 | etot = 6249.99972060395
807  ekin = 6249.99972060395 | epot = 0 | etot = 6249.99972060395
808  ekin = 6249.99972060395 | epot = 0 | etot = 6249.99972060395
809  ekin = 6249.99972060395 | epot = 0 | etot = 6249.99972060395
810  ekin = 6249.99972060395 | epot = 0 | etot = 6249.99972060395
811  ekin = 6249.99972060395 | epot = 0 | etot = 6249.99972060395
812  ekin = 6249.99972060395 | epot = 0 | etot = 6249.99972060395
813  ekin = 6249.99972060395 | epot = 0 | etot = 6249.99972060395
814  ekin = 6249.99972060395 | epot = 0 | etot = 6249.99972060395
815  ekin = 6249.99972060395 | epot = 0 | etot = 6249.99972060395
816  ekin = 6249.99972060395 | epot = 0 | etot = 6249.99972060395
817  ekin = 6249.99972060395 | epot = 0 | etot = 6249.99972060395
818  ekin = 6249.99972060395 | epot = 0 | etot = 6249.99972060395
819  ekin = 6249.99972060395 | epot = 0 | etot = 6249.99972060395
820  ekin = 6249.99972060395 | epot = 0 | etot = 6249.99972060395
821  ekin = 6249.99972060395 | epot = 0 | etot = 6249.99972060395
822  ekin = 6249.99972060395 | epot = 0 | etot = 6249.99972060395
823  ekin = 6249.99972060395 | epot = 0 | etot = 6249.99972060395
824  ekin = 6249.99972060395 | epot = 0 | etot = 6249.99972060395
825  ekin = 6249.99972060395 | epot = 0 | etot = 6249.99972060395
826  ekin = 6249.99972060395 | epot = 0 | etot = 6249.99972060395
827  ekin = 6249.99972060395 | epot = 0 | etot = 6249.99972060395
828  ekin = 6249.99972060395 | epot = 0 | etot = 6249.99972060395
829  ekin = 6249.99972060395 | epot = 0 | etot = 6249.99972060395
830  ekin = 6249.99972060395 | epot = 0 | etot = 6249.99972060395
831  ekin = 6249.99972060395 | epot = 0 | etot = 6249.99972060395
832  ekin = 6249.99972060395 | epot = 0 | etot = 6249.99972060395
833  ekin = 6249.99972060395 | epot = 0 | etot = 6249.99972060395
834  ekin = 6249.99972060395 | epot = 0 | etot = 6249.99972060395
835  ekin = 6249.99972060395 | epot = 0 | etot = 6249.99972060395
836  ekin = 6249.99972060395 | epot = 0 | etot = 6249.99972060395
837  ekin = 6249.99972060395 | epot = 0 | etot = 6249.99972060395
838  ekin = 6249.99972060395 | epot = 0 | etot = 6249.99972060395
839  ekin = 6249.99972060395 | epot = 0 | etot = 6249.99972060395
840  ekin = 6249.99972060395 | epot = 0 | etot = 6249.99972060395
841  ekin = 6249.99972060395 | epot = 0 | etot = 6249.99972060395
842  ekin = 6249.99972060395 | epot = 0 | etot = 6249.99972060395
843  ekin = 6249.99972060395 | epot = 0 | etot = 6249.99972060395
844  ekin = 6249.99972060395 | epot = 0 | etot = 6249.99972060395
845  ekin = 6249.99972060395 | epot = 0 | etot = 6249.99972060395
846  ekin = 6249.99972060395 | epot = 0 | etot = 6249.99972060395
847  ekin = 6249.99972060395 | epot = 0 | etot = 6249.99972060395
848  ekin = 6249.99972060395 | epot = 0 | etot = 6249.99972060395
849  ekin = 6249.99972060395 | epot = 0 | etot = 6249.99972060395
850  ekin = 6249.99972060395 | epot = 0 | etot = 6249.99972060395
851  ekin = 6249.99972060395 | epot = 0 | etot = 6249.99972060395
852  ekin = 6249.99972060395 | epot = 0 | etot = 6249.99972060395
853  ekin = 6249.99972060395 | epot = 0 | etot = 6249.99972060395
854  ekin = 6249.99972060395 | epot = 0 | etot = 6249.99972060395
855  ekin = 6249.99972060395 | epot = 0 | etot = 6249.99972060395
856  ekin = 6249.99972060395 | epot = 0 | etot = 6249.99972060395
857  ekin = 6249.99972060395 | epot = 0 | etot = 6249.99972060395
858  ekin = 6249.99972060395 | epot = 0 | etot = 6249.99972060395
859  ekin = 6249.99972060395 | epot = 0 | etot = 6249.99972060395
860  ekin = 6249.99972060395 | epot = 0 | etot = 6249.99972060395
861  ekin = 6249.99972060395 | epot = 0 | etot = 6249.99972060395
862  ekin = 6249.99972060395 | epot = 0 | etot = 6249.99972060395
863  ekin = 6249.99972060395 | epot = 0 | etot = 6249.99972060395
864  ekin = 6249.99972060395 | epot = 0 | etot = 6249.99972060395
865  ekin = 6249.99972060395 | epot = 0 | etot = 6249.99972060395
866  ekin = 6249.99972060395 | epot = 0 | etot = 6249.99972060395
867  ekin = 6249.99972060395 | epot = 0 | etot = 6249.99972060395
868  ekin = 6249.99972060395 | epot = 0 | etot = 6249.99972060395
869  ekin = 6249.99972060395 | epot = 0 | etot = 6249.99972060395
870  ekin = 6249.99972060395 | epot = 0 | etot = 6249.99972060395
871  ekin = 6249.99972060395 | epot = 0 | etot = 6249.99972060395
872  ekin = 6249.99972060395 | epot = 0 | etot = 6249.99972060395
873  ekin = 6249.99972060395 | epot = 0 | etot = 6249.99972060395
874  ekin = 6249.99972060395 | epot = 0 | etot = 6249.99972060395
875  ekin = 6249.99972060395 | epot = 0 | etot = 6249.99972060395
876  ekin = 6249.99972060395 | epot = 0 | etot = 6249.99972060395
877  ekin = 6249.99972060395 | epot = 0 | etot = 6249.99972060395
878  ekin = 6249.99972060395 | epot = 0 | etot = 6249.99972060395
879  ekin = 6249.99972060395 | epot = 0 | etot = 6249.99972060395
880  ekin = 6249.99972060395 | epot = 0 | etot = 6249.99972060395
881  ekin = 6249.99972060395 | epot = 0 | etot = 6249.99972060395
882  ekin = 6249.99972060395 | epot = 0 | etot = 6249.99972060395
883  ekin = 6249.99972060395 | epot = 0 | etot = 6249.99972060395
884  ekin = 6249.99972060395 | epot = 0 | etot = 6249.99972060395
885  ekin = 6249.99972060395 | epot = 0 | etot = 6249.99972060395
886  ekin = 6249.99972060395 | epot = 0 | etot = 6249.99972060395
887  ekin = 6249.99972060395 | epot = 0 | etot = 6249.99972060395
888  ekin = 6249.99972060395 | epot = 0 | etot = 6249.99972060395
889  ekin = 6249.99972060395 | epot = 0 | etot = 6249.99972060395
890  ekin = 6249.99972060395 | epot = 0 | etot = 6249.99972060395
891  ekin = 6249.99972060395 | epot = 0 | etot = 6249.99972060395
892  ekin = 6249.99972060395 | epot = 0 | etot = 6249.99972060395
893  ekin = 6249.99972060395 | epot = 0 | etot = 6249.99972060395
894  ekin = 6249.99972060395 | epot = 0 | etot = 6249.99972060395
895  ekin = 6249.99972060395 | epot = 0 | etot = 6249.99972060395
896  ekin = 6249.99972060395 | epot = 0 | etot = 6249.99972060395
897  ekin = 6249.99972060395 | epot = 0 | etot = 6249.99972060395
898  ekin = 6249.99972060395 | epot = 0 | etot = 6249.99972060395
899  ekin = 6249.99972060395 | epot = 0 | etot = 6249.99972060395
900  ekin = 6249.99972060395 | epot = 0 | etot = 6249.99972060395
901  ekin = 6249.99972060395 | epot = 0 | etot = 6249.99972060395
902  ekin = 6249.99972060395 | epot = 0 | etot = 6249.99972060395
903  ekin = 6249.99972060395 | epot = 0 | etot = 6249.99972060395
904  ekin = 6249.99972060395 | epot = 0 | etot = 6249.99972060395
905  ekin = 6249.99972060395 | epot = 0 | etot = 6249.99972060395
906  ekin = 6249.99972060395 | epot = 0 | etot = 6249.99972060395
907  ekin = 6249.99972060395 | epot = 0 | etot = 6249.99972060395
908  ekin = 6249.99972060395 | epot = 0 | etot = 6249.99972060395
909  ekin = 6249.99972060395 | epot = 0 | etot = 6249.99972060395
910  ekin = 6249.99972060395 | epot = 0 | etot = 6249.99972060395
911  ekin = 6249.99972060395 | epot = 0 | etot = 6249.99972060395
912  ekin = 6249.99972060395 | epot = 0 | etot = 6249.99972060395
913  ekin = 6249.99972060395 | epot = 0 | etot = 6249.99972060395
914  ekin = 6249.99972060395 | epot = 0 | etot = 6249.99972060395
915  ekin = 6249.99972060395 | epot = 0 | etot = 6249.99972060395
916  ekin = 6249.99972060395 | epot = 0 | etot = 6249.99972060395
917  ekin = 6249.99972060395 | epot = 0 | etot = 6249.99972060395
918  ekin = 6249.99972060395 | epot = 0 | etot = 6249.99972060395
919  ekin = 6249.99972060395 | epot = 0 | etot = 6249.99972060395
920  ekin = 6249.99972060395 | epot = 0 | etot = 6249.99972060395
921  ekin = 6249.99972060395 | epot = 0 | etot = 6249.99972060395
922  ekin = 6249.99972060395 | epot = 0 | etot = 6249.99972060395
923  ekin = 6249.99972060395 | epot = 0 | etot = 6249.99972060395
924  ekin = 6249.99972060395 | epot = 0 | etot = 6249.99972060395
925  ekin = 6249.99972060395 | epot = 0 | etot = 6249.99972060395
926  ekin = 6249.99972060395 | epot = 0 | etot = 6249.99972060395
927  ekin = 6249.99972060395 | epot = 0 | etot = 6249.99972060395
928  ekin = 6249.99972060395 | epot = 0 | etot = 6249.99972060395
929  ekin = 6249.99972060395 | epot = 0 | etot = 6249.99972060395
930  ekin = 6249.99972060395 | epot = 0 | etot = 6249.99972060395
931  ekin = 6249.99972060395 | epot = 0 | etot = 6249.99972060395
932  ekin = 6249.99972060395 | epot = 0 | etot = 6249.99972060395
933  ekin = 6249.99972060395 | epot = 0 | etot = 6249.99972060395
934  ekin = 6249.99972060395 | epot = 0 | etot = 6249.99972060395
935  ekin = 6249.99972060395 | epot = 0 | etot = 6249.99972060395
936  ekin = 6249.99972060395 | epot = 0 | etot = 6249.99972060395
937  ekin = 6249.99972060395 | epot = 0 | etot = 6249.99972060395
938  ekin = 6249.99972060395 | epot = 0 | etot = 6249.99972060395
939  ekin = 6249.99972060395 | epot = 0 | etot = 6249.99972060395
940  ekin = 6249.99972060395 | epot = 0 | etot = 6249.99972060395
941  ekin = 6249.99972060395 | epot = 0 | etot = 6249.99972060395
942  ekin = 6249.99972060395 | epot = 0 | etot = 6249.99972060395
943  ekin = 6249.99972060395 | epot = 0 | etot = 6249.99972060395
944  ekin = 6249.99972060395 | epot = 0 | etot = 6249.99972060395
945  ekin = 6249.99972060395 | epot = 0 | etot = 6249.99972060395
946  ekin = 6249.99972060395 | epot = 0 | etot = 6249.99972060395
947  ekin = 6249.99972060395 | epot = 0 | etot = 6249.99972060395
948  ekin = 6249.99972060395 | epot = 0 | etot = 6249.99972060395
949  ekin = 6249.99972060395 | epot = 0 | etot = 6249.99972060395
950  ekin = 6249.99972060395 | epot = 0 | etot = 6249.99972060395
951  ekin = 6249.99972060395 | epot = 0 | etot = 6249.99972060395
952  ekin = 6249.99972060395 | epot = 0 | etot = 6249.99972060395
953  ekin = 6249.99972060395 | epot = 0 | etot = 6249.99972060395
954  ekin = 6249.99972060395 | epot = 0 | etot = 6249.99972060395
955  ekin = 6249.99972060395 | epot = 0 | etot = 6249.99972060395
956  ekin = 6249.99972060395 | epot = 0 | etot = 6249.99972060395
957  ekin = 6249.99972060395 | epot = 0 | etot = 6249.99972060395
958  ekin = 6249.99972060395 | epot = 0 | etot = 6249.99972060395
959  ekin = 6249.99972060395 | epot = 0 | etot = 6249.99972060395
960  ekin = 6249.99972060395 | epot = 0 | etot = 6249.99972060395
961  ekin = 6249.99972060395 | epot = 0 | etot = 6249.99972060395
962  ekin = 6249.99972060395 | epot = 0 | etot = 6249.99972060395
963  ekin = 6249.99972060395 | epot = 0 | etot = 6249.99972060395
964  ekin = 6249.99972060395 | epot = 0 | etot = 6249.99972060395
965  ekin = 6249.99972060395 | epot = 0 | etot = 6249.99972060395
966  ekin = 6249.99972060395 | epot = 0 | etot = 6249.99972060395
967  ekin = 6249.99972060395 | epot = 0 | etot = 6249.99972060395
968  ekin = 6249.99972060395 | epot = 0 | etot = 6249.99972060395
969  ekin = 6249.99972060395 | epot = 0 | etot = 6249.99972060395
970  ekin = 6249.99972060395 | epot = 0 | etot = 6249.99972060395
971  ekin = 6249.99972060395 | epot = 0 | etot = 6249.99972060395
972  ekin = 6249.99972060395 | epot = 0 | etot = 6249.99972060395
973  ekin = 6249.99972060395 | epot = 0 | etot = 6249.99972060395
974  ekin = 6249.99972060395 | epot = 0 | etot = 6249.99972060395
975  ekin = 6249.99972060395 | epot = 0 | etot = 6249.99972060395
976  ekin = 6249.99972060395 | epot = 0 | etot = 6249.99972060395
977  ekin = 6249.99972060395 | epot = 0 | etot = 6249.99972060395
978  ekin = 6249.99972060395 | epot = 0 | etot = 6249.99972060395
979  ekin = 6249.99972060395 | epot = 0 | etot = 6249.99972060395
980  ekin = 6249.99972060395 | epot = 0 | etot = 6249.99972060395
981  ekin = 6249.99972060395 | epot = 0 | etot = 6249.99972060395
982  ekin = 6249.99972060395 | epot = 0 | etot = 6249.99972060395
983  ekin = 6249.99972060395 | epot = 0 | etot = 6249.99972060395
984  ekin = 6249.99972060395 | epot = 0 | etot = 6249.99972060395
985  ekin = 6249.99972060395 | epot = 0 | etot = 6249.99972060395
986  ekin = 6249.99972060395 | epot = 0 | etot = 6249.99972060395
987  ekin = 6249.99972060395 | epot = 0 | etot = 6249.99972060395
988  ekin = 6249.99972060395 | epot = 0 | etot = 6249.99972060395
989  ekin = 6249.99972060395 | epot = 0 | etot = 6249.99972060395
990  ekin = 6249.99972060395 | epot = 0 | etot = 6249.99972060395
991  ekin = 6249.99972060395 | epot = 0 | etot = 6249.99972060395
992  ekin = 6249.99972060395 | epot = 0 | etot = 6249.99972060395
993  ekin = 6249.99972060395 | epot = 0 | etot = 6249.99972060395
994  ekin = 6249.99972060395 | epot = 0 | etot = 6249.99972060395
995  ekin = 6249.99972060395 | epot = 0 | etot = 6249.99972060395
996  ekin = 6249.99972060395 | epot = 0 | etot = 6249.99972060395
997  ekin = 6249.99972060395 | epot = 0 | etot = 6249.99972060395
998  ekin = 6249.99972060395 | epot = 0 | etot = 6249.99972060395
999  ekin = 6249.99972060395 | epot = 0 | etot = 6249.99972060395
1000  ekin = 6249.99972060395 | epot = 0 | etot = 6249.99972060395
1001  ekin = 6249.99972060395 | epot = 0 | etot = 6249.99972060395
1002  ekin = 6249.99972060395 | epot = 0 | etot = 6249.99972060395
1003  ekin = 6249.99972060395 | epot = 0 | etot = 6249.99972060395
1004  ekin = 6249.99972060395 | epot = 0 | etot = 6249.99972060395
1005  ekin = 6249.99972060395 | epot = 0 | etot = 6249.99972060395
1006  ekin = 6249.99972060395 | epot = 0 | etot = 6249.99972060395
1007  ekin = 6249.99972060395 | epot = 0 | etot = 6249.99972060395
1008  ekin = 6249.99972060395 | epot = 0 | etot = 6249.99972060395
1009  ekin = 6249.99972060395 | epot = 0 | etot = 6249.99972060395
1010  ekin = 6249.99972060395 | epot = 0 | etot = 6249.99972060395
1011  ekin = 6249.99972060395 | epot = 0 | etot = 6249.99972060395
1012  ekin = 6249.99972060395 | epot = 0 | etot = 6249.99972060395
1013  ekin = 6249.99972060395 | epot = 0 | etot = 6249.99972060395
1014  ekin = 6249.99972060395 | epot = 0 | etot = 6249.99972060395
1015  ekin = 6249.99972060395 | epot = 0 | etot = 6249.99972060395
1016  ekin = 6249.99972060395 | epot = 0 | etot = 6249.99972060395
1017  ekin = 6249.99972060395 | epot = 0 | etot = 6249.99972060395
1018  ekin = 6249.99972060395 | epot = 0 | etot = 6249.99972060395
1019  ekin = 6249.99972060395 | epot = 0 | etot = 6249.99972060395
1020  ekin = 6249.99972060395 | epot = 0 | etot = 6249.99972060395
1021  ekin = 6249.99972060395 | epot = 0 | etot = 6249.99972060395
1022  ekin = 6249.99972060395 | epot = 0 | etot = 6249.99972060395
1023  ekin = 6249.99972060395 | epot = 0 | etot = 6249.99972060395
1024  ekin = 6249.99972060395 | epot = 0 | etot = 6249.99972060395
1025  ekin = 6249.99972060395 | epot = 0 | etot = 6249.99972060395
1026  ekin = 6249.99972060395 | epot = 0 | etot = 6249.99972060395
1027  ekin = 6249.99972060395 | epot = 0 | etot = 6249.99972060395
1028  ekin = 6249.99972060395 | epot = 0 | etot = 6249.99972060395
1029  ekin = 6249.99972060395 | epot = 0 | etot = 6249.99972060395
1030  ekin = 6249.99972060395 | epot = 0 | etot = 6249.99972060395
1031  ekin = 6249.99972060395 | epot = 0 | etot = 6249.99972060395
1032  ekin = 6249.99972060395 | epot = 0 | etot = 6249.99972060395
1033  ekin = 6249.99972060395 | epot = 0 | etot = 6249.99972060395
1034  ekin = 6249.99972060395 | epot = 0 | etot = 6249.99972060395
1035  ekin = 6249.99972060395 | epot = 0 | etot = 6249.99972060395
1036  ekin = 6249.99972060395 | epot = 0 | etot = 6249.99972060395
1037  ekin = 6249.99972060395 | epot = 0 | etot = 6249.99972060395
1038  ekin = 6249.99972060395 | epot = 0 | etot = 6249.99972060395
1039  ekin = 6249.99972060395 | epot = 0 | etot = 6249.99972060395
1040  ekin = 6249.99972060395 | epot = 0 | etot = 6249.99972060395
1041  ekin = 6249.99972060395 | epot = 0 | etot = 6249.99972060395
1042  ekin = 6249.99972060395 | epot = 0 | etot = 6249.99972060395
1043  ekin = 6249.99972060395 | epot = 0 | etot = 6249.99972060395
1044  ekin = 6249.99972060395 | epot = 0 | etot = 6249.99972060395
1045  ekin = 6249.99972060395 | epot = 0 | etot = 6249.99972060395
1046  ekin = 6249.99972060395 | epot = 0 | etot = 6249.99972060395
1047  ekin = 6249.99972060395 | epot = 0 | etot = 6249.99972060395
1048  ekin = 6249.99972060395 | epot = 0 | etot = 6249.99972060395
1049  ekin = 6249.99972060395 | epot = 0 | etot = 6249.99972060395
1050  ekin = 6249.99972060395 | epot = 0 | etot = 6249.99972060395
1051  ekin = 6249.99972060395 | epot = 0 | etot = 6249.99972060395
1052  ekin = 6249.99972060395 | epot = 0 | etot = 6249.99972060395
1053  ekin = 6249.99972060395 | epot = 0 | etot = 6249.99972060395
1054  ekin = 6249.99972060395 | epot = 0 | etot = 6249.99972060395
1055  ekin = 6249.99972060395 | epot = 0 | etot = 6249.99972060395
1056  ekin = 6249.99972060395 | epot = 0 | etot = 6249.99972060395
1057  ekin = 6249.99972060395 | epot = 0 | etot = 6249.99972060395
1058  ekin = 6249.99972060395 | epot = 0 | etot = 6249.99972060395
1059  ekin = 6249.99972060395 | epot = 0 | etot = 6249.99972060395
1060  ekin = 6249.99972060395 | epot = 0 | etot = 6249.99972060395
1061  ekin = 6249.99972060395 | epot = 0 | etot = 6249.99972060395
1062  ekin = 6249.99972060395 | epot = 0 | etot = 6249.99972060395
1063  ekin = 6249.99972060395 | epot = 0 | etot = 6249.99972060395
1064  ekin = 6249.99972060395 | epot = 0 | etot = 6249.99972060395
1065  ekin = 6249.99972060395 | epot = 0 | etot = 6249.99972060395
1066  ekin = 6249.99972060395 | epot = 0 | etot = 6249.99972060395
1067  ekin = 6249.99972060395 | epot = 0 | etot = 6249.99972060395
1068  ekin = 6249.99972060395 | epot = 0 | etot = 6249.99972060395
1069  ekin = 6249.99972060395 | epot = 0 | etot = 6249.99972060395
1070  ekin = 6249.99972060395 | epot = 0 | etot = 6249.99972060395
1071  ekin = 6249.99972060395 | epot = 0 | etot = 6249.99972060395
1072  ekin = 6249.99972060395 | epot = 0 | etot = 6249.99972060395
1073  ekin = 6249.99972060395 | epot = 0 | etot = 6249.99972060395
1074  ekin = 6249.99972060395 | epot = 0 | etot = 6249.99972060395
1075  ekin = 6249.99972060395 | epot = 0 | etot = 6249.99972060395
1076  ekin = 6249.99972060395 | epot = 0 | etot = 6249.99972060395
1077  ekin = 6249.99972060395 | epot = 0 | etot = 6249.99972060395
1078  ekin = 6249.99972060395 | epot = 0 | etot = 6249.99972060395
1079  ekin = 6249.99972060395 | epot = 0 | etot = 6249.99972060395
1080  ekin = 6249.99972060395 | epot = 0 | etot = 6249.99972060395
1081  ekin = 6249.99972060395 | epot = 0 | etot = 6249.99972060395
1082  ekin = 6249.99972060395 | epot = 0 | etot = 6249.99972060395
1083  ekin = 6249.99972060395 | epot = 0 | etot = 6249.99972060395
1084  ekin = 6249.99972060395 | epot = 0 | etot = 6249.99972060395
1085  ekin = 6249.99972060395 | epot = 0 | etot = 6249.99972060395
1086  ekin = 6249.99972060395 | epot = 0 | etot = 6249.99972060395
1087  ekin = 6249.99972060395 | epot = 0 | etot = 6249.99972060395
1088  ekin = 6249.99972060395 | epot = 0 | etot = 6249.99972060395
1089  ekin = 6249.99972060395 | epot = 0 | etot = 6249.99972060395
1090  ekin = 6249.99972060395 | epot = 0 | etot = 6249.99972060395
1091  ekin = 6249.99972060395 | epot = 0 | etot = 6249.99972060395
1092  ekin = 6249.99972060395 | epot = 0 | etot = 6249.99972060395
1093  ekin = 6249.99972060395 | epot = 0 | etot = 6249.99972060395
1094  ekin = 6249.99972060395 | epot = 0 | etot = 6249.99972060395
1095  ekin = 6249.99972060395 | epot = 0 | etot = 6249.99972060395
1096  ekin = 6249.99972060395 | epot = 0 | etot = 6249.99972060395
1097  ekin = 6249.99972060395 | epot = 0 | etot = 6249.99972060395
1098  ekin = 6249.99972060395 | epot = 0 | etot = 6249.99972060395
1099  ekin = 6249.99972060395 | epot = 0 | etot = 6249.99972060395
1100  ekin = 6249.99972060395 | epot = 0 | etot = 6249.99972060395
1101  ekin = 6249.99972060395 | epot = 0 | etot = 6249.99972060395
1102  ekin = 6249.99972060395 | epot = 0 | etot = 6249.99972060395
1103  ekin = 6249.99972060395 | epot = 0 | etot = 6249.99972060395
1104  ekin = 6249.99972060395 | epot = 0 | etot = 6249.99972060395
1105  ekin = 6249.99972060395 | epot = 0 | etot = 6249.99972060395
1106  ekin = 6249.99972060395 | epot = 0 | etot = 6249.99972060395
1107  ekin = 6249.99972060395 | epot = 0 | etot = 6249.99972060395
1108  ekin = 6249.99972060395 | epot = 0 | etot = 6249.99972060395
1109  ekin = 6249.99972060395 | epot = 0 | etot = 6249.99972060395
1110  ekin = 6249.99972060395 | epot = 0 | etot = 6249.99972060395
1111  ekin = 6249.99972060395 | epot = 0 | etot = 6249.99972060395
1112  ekin = 6249.99972060395 | epot = 0 | etot = 6249.99972060395
1113  ekin = 6249.99972060395 | epot = 0 | etot = 6249.99972060395
1114  ekin = 6249.99972060395 | epot = 0 | etot = 6249.99972060395
1115  ekin = 6249.99972060395 | epot = 0 | etot = 6249.99972060395
1116  ekin = 6249.99972060395 | epot = 0 | etot = 6249.99972060395
1117  ekin = 6249.99972060395 | epot = 0 | etot = 6249.99972060395
1118  ekin = 6249.99972060395 | epot = 0 | etot = 6249.99972060395
1119  ekin = 6249.99972060395 | epot = 0 | etot = 6249.99972060395
1120  ekin = 6249.99972060395 | epot = 0 | etot = 6249.99972060395
1121  ekin = 6249.99972060395 | epot = 0 | etot = 6249.99972060395
1122  ekin = 6249.99972060395 | epot = 0 | etot = 6249.99972060395
1123  ekin = 6249.99972060395 | epot = 0 | etot = 6249.99972060395
1124  ekin = 6249.99972060395 | epot = 0 | etot = 6249.99972060395
1125  ekin = 6249.99972060395 | epot = 0 | etot = 6249.99972060395
1126  ekin = 6249.99972060395 | epot = 0 | etot = 6249.99972060395
1127  ekin = 6249.99972060395 | epot = 0 | etot = 6249.99972060395
1128  ekin = 6249.99972060395 | epot = 0 | etot = 6249.99972060395
1129  ekin = 6249.99972060395 | epot = 0 | etot = 6249.99972060395
1130  ekin = 6249.99972060395 | epot = 0 | etot = 6249.99972060395
1131  ekin = 6249.99972060395 | epot = 0 | etot = 6249.99972060395
1132  ekin = 6249.99972060395 | epot = 0 | etot = 6249.99972060395
1133  ekin = 6249.99972060395 | epot = 0 | etot = 6249.99972060395
1134  ekin = 6249.99972060395 | epot = 0 | etot = 6249.99972060395
1135  ekin = 6249.99972060395 | epot = 0 | etot = 6249.99972060395
1136  ekin = 6249.99972060395 | epot = 0 | etot = 6249.99972060395
1137  ekin = 6249.99972060395 | epot = 0 | etot = 6249.99972060395
1138  ekin = 6249.99972060395 | epot = 0 | etot = 6249.99972060395
1139  ekin = 6249.99972060395 | epot = 0 | etot = 6249.99972060395
1140  ekin = 6249.99972060395 | epot = 0 | etot = 6249.99972060395
1141  ekin = 6249.99972060395 | epot = 0 | etot = 6249.99972060395
1142  ekin = 6249.99972060395 | epot = 0 | etot = 6249.99972060395
1143  ekin = 6249.99972060395 | epot = 0 | etot = 6249.99972060395
1144  ekin = 6249.99972060395 | epot = 0 | etot = 6249.99972060395
1145  ekin = 6249.99972060395 | epot = 0 | etot = 6249.99972060395
[...]
9723  ekin = 6249.99972060395 | epot = 0 | etot = 6249.99972060395
9724  ekin = 6249.99972060395 | epot = 0 | etot = 6249.99972060395
9725  ekin = 6249.99972060395 | epot = 0 | etot = 6249.99972060395
9726  ekin = 6249.99972060395 | epot = 0 | etot = 6249.99972060395
9727  ekin = 6249.99972060395 | epot = 0 | etot = 6249.99972060395
9728  ekin = 6249.99972060395 | epot = 0 | etot = 6249.99972060395
9729  ekin = 6249.99972060395 | epot = 0 | etot = 6249.99972060395
9730  ekin = 6249.99972060395 | epot = 0 | etot = 6249.99972060395
9731  ekin = 6249.99972060395 | epot = 0 | etot = 6249.99972060395
9732  ekin = 6249.99972060395 | epot = 0 | etot = 6249.99972060395
9733  ekin = 6249.99972060395 | epot = 0 | etot = 6249.99972060395
9734  ekin = 6249.99972060395 | epot = 0 | etot = 6249.99972060395
9735  ekin = 6249.99972060395 | epot = 0 | etot = 6249.99972060395
9736  ekin = 6249.99972060395 | epot = 0 | etot = 6249.99972060395
9737  ekin = 6249.99972060395 | epot = 0 | etot = 6249.99972060395
9738  ekin = 6249.99972060395 | epot = 0 | etot = 6249.99972060395
9739  ekin = 6249.99972060395 | epot = 0 | etot = 6249.99972060395
9740  ekin = 6249.99972060395 | epot = 0 | etot = 6249.99972060395
9741  ekin = 6249.99972060395 | epot = 0 | etot = 6249.99972060395
9742  ekin = 6249.99972060395 | epot = 0 | etot = 6249.99972060395
9743  ekin = 6249.99972060395 | epot = 0 | etot = 6249.99972060395
9744  ekin = 6249.99972060395 | epot = 0 | etot = 6249.99972060395
9745  ekin = 6249.99972060395 | epot = 0 | etot = 6249.99972060395
9746  ekin = 6249.99972060395 | epot = 0 | etot = 6249.99972060395
9747  ekin = 6249.99972060395 | epot = 0 | etot = 6249.99972060395
9748  ekin = 6249.99972060395 | epot = 0 | etot = 6249.99972060395
9749  ekin = 6249.99972060395 | epot = 0 | etot = 6249.99972060395
9750  ekin = 6249.99972060395 | epot = 0 | etot = 6249.99972060395
9751  ekin = 6249.99972060395 | epot = 0 | etot = 6249.99972060395
9752  ekin = 6249.99972060395 | epot = 0 | etot = 6249.99972060395
9753  ekin = 6249.99972060395 | epot = 0 | etot = 6249.99972060395
9754  ekin = 6249.99972060395 | epot = 0 | etot = 6249.99972060395
9755  ekin = 6249.99972060395 | epot = 0 | etot = 6249.99972060395
9756  ekin = 6249.99972060395 | epot = 0 | etot = 6249.99972060395
9757  ekin = 6249.99972060395 | epot = 0 | etot = 6249.99972060395
9758  ekin = 6249.99972060395 | epot = 0 | etot = 6249.99972060395
9759  ekin = 6249.99972060395 | epot = 0 | etot = 6249.99972060395
9760  ekin = 6249.99972060395 | epot = 0 | etot = 6249.99972060395
9761  ekin = 6249.99972060395 | epot = 0 | etot = 6249.99972060395
9762  ekin = 6249.99972060395 | epot = 0 | etot = 6249.99972060395
9763  ekin = 6249.99972060395 | epot = 0 | etot = 6249.99972060395
9764  ekin = 6249.99972060395 | epot = 0 | etot = 6249.99972060395
9765  ekin = 6249.99972060395 | epot = 0 | etot = 6249.99972060395
9766  ekin = 6249.99972060395 | epot = 0 | etot = 6249.99972060395
9767  ekin = 6249.99972060395 | epot = 0 | etot = 6249.99972060395
9768  ekin = 6249.99972060395 | epot = 0 | etot = 6249.99972060395
9769  ekin = 6249.99972060395 | epot = 0 | etot = 6249.99972060395
9770  ekin = 6249.99972060395 | epot = 0 | etot = 6249.99972060395
9771  ekin = 6249.99972060395 | epot = 0 | etot = 6249.99972060395
9772  ekin = 6249.99972060395 | epot = 0 | etot = 6249.99972060395
9773  ekin = 6249.99972060395 | epot = 0 | etot = 6249.99972060395
9774  ekin = 6249.99972060395 | epot = 0 | etot = 6249.99972060395
9775  ekin = 6249.99972060395 | epot = 0 | etot = 6249.99972060395
9776  ekin = 6249.99972060395 | epot = 0 | etot = 6249.99972060395
9777  ekin = 6249.99972060395 | epot = 0 | etot = 6249.99972060395
9778  ekin = 6249.99972060395 | epot = 0 | etot = 6249.99972060395
9779  ekin = 6249.99972060395 | epot = 0 | etot = 6249.99972060395
9780  ekin = 6249.99972060395 | epot = 0 | etot = 6249.99972060395
9781  ekin = 6249.99972060395 | epot = 0 | etot = 6249.99972060395
9782  ekin = 6249.99972060395 | epot = 0 | etot = 6249.99972060395
9783  ekin = 6249.99972060395 | epot = 0 | etot = 6249.99972060395
9784  ekin = 6249.99972060395 | epot = 0 | etot = 6249.99972060395
9785  ekin = 6249.99972060395 | epot = 0 | etot = 6249.99972060395
9786  ekin = 6249.99972060395 | epot = 0 | etot = 6249.99972060395
9787  ekin = 6249.99972060395 | epot = 0 | etot = 6249.99972060395
9788  ekin = 6249.99972060395 | epot = 0 | etot = 6249.99972060395
9789  ekin = 6249.99972060395 | epot = 0 | etot = 6249.99972060395
9790  ekin = 6249.99972060395 | epot = 0 | etot = 6249.99972060395
9791  ekin = 6249.99972060395 | epot = 0 | etot = 6249.99972060395
9792  ekin = 6249.99972060395 | epot = 0 | etot = 6249.99972060395
9793  ekin = 6249.99972060395 | epot = 0 | etot = 6249.99972060395
9794  ekin = 6249.99972060395 | epot = 0 | etot = 6249.99972060395
9795  ekin = 6249.99972060395 | epot = 0 | etot = 6249.99972060395
9796  ekin = 6249.99972060395 | epot = 0 | etot = 6249.99972060395
9797  ekin = 6249.99972060395 | epot = 0 | etot = 6249.99972060395
9798  ekin = 6249.99972060395 | epot = 0 | etot = 6249.99972060395
9799  ekin = 6249.99972060395 | epot = 0 | etot = 6249.99972060395
9800  ekin = 6249.99972060395 | epot = 0 | etot = 6249.99972060395
9801  ekin = 6249.99972060395 | epot = 0 | etot = 6249.99972060395
9802  ekin = 6249.99972060395 | epot = 0 | etot = 6249.99972060395
9803  ekin = 6249.99972060395 | epot = 0 | etot = 6249.99972060395
9804  ekin = 6249.99972060395 | epot = 0 | etot = 6249.99972060395
9805  ekin = 6249.99972060395 | epot = 0 | etot = 6249.99972060395
9806  ekin = 6249.99972060395 | epot = 0 | etot = 6249.99972060395
9807  ekin = 6249.99972060395 | epot = 0 | etot = 6249.99972060395
9808  ekin = 6249.99972060395 | epot = 0 | etot = 6249.99972060395
9809  ekin = 6249.99972060395 | epot = 0 | etot = 6249.99972060395
9810  ekin = 6249.99972060395 | epot = 0 | etot = 6249.99972060395
9811  ekin = 6249.99972060395 | epot = 0 | etot = 6249.99972060395
9812  ekin = 6249.99972060395 | epot = 0 | etot = 6249.99972060395
9813  ekin = 6249.99972060395 | epot = 0 | etot = 6249.99972060395
9814  ekin = 6249.99972060395 | epot = 0 | etot = 6249.99972060395
9815  ekin = 6249.99972060395 | epot = 0 | etot = 6249.99972060395
9816  ekin = 6249.99972060395 | epot = 0 | etot = 6249.99972060395
9817  ekin = 6249.99972060395 | epot = 0 | etot = 6249.99972060395
9818  ekin = 6249.99972060395 | epot = 0 | etot = 6249.99972060395
9819  ekin = 6249.99972060395 | epot = 0 | etot = 6249.99972060395
9820  ekin = 6249.99972060395 | epot = 0 | etot = 6249.99972060395
9821  ekin = 6249.99972060395 | epot = 0 | etot = 6249.99972060395
9822  ekin = 6249.99972060395 | epot = 0 | etot = 6249.99972060395
9823  ekin = 6249.99972060395 | epot = 0 | etot = 6249.99972060395
9824  ekin = 6249.99972060395 | epot = 0 | etot = 6249.99972060395
9825  ekin = 6249.99972060395 | epot = 0 | etot = 6249.99972060395
9826  ekin = 6249.99972060395 | epot = 0 | etot = 6249.99972060395
9827  ekin = 6249.99972060395 | epot = 0 | etot = 6249.99972060395
9828  ekin = 6249.99972060395 | epot = 0 | etot = 6249.99972060395
9829  ekin = 6249.99972060395 | epot = 0 | etot = 6249.99972060395
9830  ekin = 6249.99972060395 | epot = 0 | etot = 6249.99972060395
9831  ekin = 6249.99972060395 | epot = 0 | etot = 6249.99972060395
9832  ekin = 6249.99972060395 | epot = 0 | etot = 6249.99972060395
9833  ekin = 6249.99972060395 | epot = 0 | etot = 6249.99972060395
9834  ekin = 6249.99972060395 | epot = 0 | etot = 6249.99972060395
9835  ekin = 6249.99972060395 | epot = 0 | etot = 6249.99972060395
9836  ekin = 6249.99972060395 | epot = 0 | etot = 6249.99972060395
9837  ekin = 6249.99972060395 | epot = 0 | etot = 6249.99972060395
9838  ekin = 6249.99972060395 | epot = 0 | etot = 6249.99972060395
9839  ekin = 6249.99972060395 | epot = 0 | etot = 6249.99972060395
9840  ekin = 6249.99972060395 | epot = 0 | etot = 6249.99972060395
9841  ekin = 6249.99972060395 | epot = 0 | etot = 6249.99972060395
9842  ekin = 6249.99972060395 | epot = 0 | etot = 6249.99972060395
9843  ekin = 6249.99972060395 | epot = 0 | etot = 6249.99972060395
9844  ekin = 6249.99972060395 | epot = 0 | etot = 6249.99972060395
9845  ekin = 6249.99972060395 | epot = 0 | etot = 6249.99972060395
9846  ekin = 6249.99972060395 | epot = 0 | etot = 6249.99972060395
9847  ekin = 6249.99972060395 | epot = 0 | etot = 6249.99972060395
9848  ekin = 6249.99972060395 | epot = 0 | etot = 6249.99972060395
9849  ekin = 6249.99972060395 | epot = 0 | etot = 6249.99972060395
9850  ekin = 6249.99972060395 | epot = 0 | etot = 6249.99972060395
9851  ekin = 6249.99972060395 | epot = 0 | etot = 6249.99972060395
9852  ekin = 6249.99972060395 | epot = 0 | etot = 6249.99972060395
9853  ekin = 6249.99972060395 | epot = 0 | etot = 6249.99972060395
9854  ekin = 6249.99972060395 | epot = 0 | etot = 6249.99972060395
9855  ekin = 6249.99972060395 | epot = 0 | etot = 6249.99972060395
9856  ekin = 6249.99972060395 | epot = 0 | etot = 6249.99972060395
9857  ekin = 6249.99972060395 | epot = 0 | etot = 6249.99972060395
9858  ekin = 6249.99972060395 | epot = 0 | etot = 6249.99972060395
9859  ekin = 6249.99972060395 | epot = 0 | etot = 6249.99972060395
9860  ekin = 6249.99972060395 | epot = 0 | etot = 6249.99972060395
9861  ekin = 6249.99972060395 | epot = 0 | etot = 6249.99972060395
9862  ekin = 6249.99972060395 | epot = 0 | etot = 6249.99972060395
9863  ekin = 6249.99972060395 | epot = 0 | etot = 6249.99972060395
9864  ekin = 6249.99972060395 | epot = 0 | etot = 6249.99972060395
9865  ekin = 6249.99972060395 | epot = 0 | etot = 6249.99972060395
9866  ekin = 6249.99972060395 | epot = 0 | etot = 6249.99972060395
9867  ekin = 6249.99972060395 | epot = 0 | etot = 6249.99972060395
9868  ekin = 6249.99972060395 | epot = 0 | etot = 6249.99972060395
9869  ekin = 6249.99972060395 | epot = 0 | etot = 6249.99972060395
9870  ekin = 6249.99972060395 | epot = 0 | etot = 6249.99972060395
9871  ekin = 6249.99972060395 | epot = 0 | etot = 6249.99972060395
9872  ekin = 6249.99972060395 | epot = 0 | etot = 6249.99972060395
9873  ekin = 6249.99972060395 | epot = 0 | etot = 6249.99972060395
9874  ekin = 6249.99972060395 | epot = 0 | etot = 6249.99972060395
9875  ekin = 6249.99972060395 | epot = 0 | etot = 6249.99972060395
9876  ekin = 6249.99972060395 | epot = 0 | etot = 6249.99972060395
9877  ekin = 6249.99972060395 | epot = 0 | etot = 6249.99972060395
9878  ekin = 6249.99972060395 | epot = 0 | etot = 6249.99972060395
9879  ekin = 6249.99972060395 | epot = 0 | etot = 6249.99972060395
9880  ekin = 6249.99972060395 | epot = 0 | etot = 6249.99972060395
9881  ekin = 6249.99972060395 | epot = 0 | etot = 6249.99972060395
9882  ekin = 6249.99972060395 | epot = 0 | etot = 6249.99972060395
9883  ekin = 6249.99972060395 | epot = 0 | etot = 6249.99972060395
9884  ekin = 6249.99972060395 | epot = 0 | etot = 6249.99972060395
9885  ekin = 6249.99972060395 | epot = 0 | etot = 6249.99972060395
9886  ekin = 6249.99972060395 | epot = 0 | etot = 6249.99972060395
9887  ekin = 6249.99972060395 | epot = 0 | etot = 6249.99972060395
9888  ekin = 6249.99972060395 | epot = 0 | etot = 6249.99972060395
9889  ekin = 6249.99972060395 | epot = 0 | etot = 6249.99972060395
9890  ekin = 6249.99972060395 | epot = 0 | etot = 6249.99972060395
9891  ekin = 6249.99972060395 | epot = 0 | etot = 6249.99972060395
9892  ekin = 6249.99972060395 | epot = 0 | etot = 6249.99972060395
9893  ekin = 6249.99972060395 | epot = 0 | etot = 6249.99972060395
9894  ekin = 6249.99972060395 | epot = 0 | etot = 6249.99972060395
9895  ekin = 6249.99972060395 | epot = 0 | etot = 6249.99972060395
9896  ekin = 6249.99972060395 | epot = 0 | etot = 6249.99972060395
9897  ekin = 6249.99972060395 | epot = 0 | etot = 6249.99972060395
9898  ekin = 6249.99972060395 | epot = 0 | etot = 6249.99972060395
9899  ekin = 6249.99972060395 | epot = 0 | etot = 6249.99972060395
9900  ekin = 6249.99972060395 | epot = 0 | etot = 6249.99972060395
9901  ekin = 6249.99972060395 | epot = 0 | etot = 6249.99972060395
9902  ekin = 6249.99972060395 | epot = 0 | etot = 6249.99972060395
9903  ekin = 6249.99972060395 | epot = 0 | etot = 6249.99972060395
9904  ekin = 6249.99972060395 | epot = 0 | etot = 6249.99972060395
9905  ekin = 6249.99972060395 | epot = 0 | etot = 6249.99972060395
9906  ekin = 6249.99972060395 | epot = 0 | etot = 6249.99972060395
9907  ekin = 6249.99972060395 | epot = 0 | etot = 6249.99972060395
9908  ekin = 6249.99972060395 | epot = 0 | etot = 6249.99972060395
9909  ekin = 6249.99972060395 | epot = 0 | etot = 6249.99972060395
9910  ekin = 6249.99972060395 | epot = 0 | etot = 6249.99972060395
9911  ekin = 6249.99972060395 | epot = 0 | etot = 6249.99972060395
9912  ekin = 6249.99972060395 | epot = 0 | etot = 6249.99972060395
9913  ekin = 6249.99972060395 | epot = 0 | etot = 6249.99972060395
9914  ekin = 6249.99972060395 | epot = 0 | etot = 6249.99972060395
9915  ekin = 6249.99972060395 | epot = 0 | etot = 6249.99972060395
9916  ekin = 6249.99972060395 | epot = 0 | etot = 6249.99972060395
9917  ekin = 6249.99972060395 | epot = 0 | etot = 6249.99972060395
9918  ekin = 6249.99972060395 | epot = 0 | etot = 6249.99972060395
9919  ekin = 6249.99972060395 | epot = 0 | etot = 6249.99972060395
9920  ekin = 6249.99972060395 | epot = 0 | etot = 6249.99972060395
9921  ekin = 6249.99972060395 | epot = 0 | etot = 6249.99972060395
9922  ekin = 6249.99972060395 | epot = 0 | etot = 6249.99972060395
9923  ekin = 6249.99972060395 | epot = 0 | etot = 6249.99972060395
9924  ekin = 6249.99972060395 | epot = 0 | etot = 6249.99972060395
9925  ekin = 6249.99972060395 | epot = 0 | etot = 6249.99972060395
9926  ekin = 6249.99972060395 | epot = 0 | etot = 6249.99972060395
9927  ekin = 6249.99972060395 | epot = 0 | etot = 6249.99972060395
9928  ekin = 6249.99972060395 | epot = 0 | etot = 6249.99972060395
9929  ekin = 6249.99972060395 | epot = 0 | etot = 6249.99972060395
9930  ekin = 6249.99972060395 | epot = 0 | etot = 6249.99972060395
9931  ekin = 6249.99972060395 | epot = 0 | etot = 6249.99972060395
9932  ekin = 6249.99972060395 | epot = 0 | etot = 6249.99972060395
9933  ekin = 6249.99972060395 | epot = 0 | etot = 6249.99972060395
9934  ekin = 6249.99972060395 | epot = 0 | etot = 6249.99972060395
9935  ekin = 6249.99972060395 | epot = 0 | etot = 6249.99972060395
9936  ekin = 6249.99972060395 | epot = 0 | etot = 6249.99972060395
9937  ekin = 6249.99972060395 | epot = 0 | etot = 6249.99972060395
9938  ekin = 6249.99972060395 | epot = 0 | etot = 6249.99972060395
9939  ekin = 6249.99972060395 | epot = 0 | etot = 6249.99972060395
9940  ekin = 6249.99972060395 | epot = 0 | etot = 6249.99972060395
9941  ekin = 6249.99972060395 | epot = 0 | etot = 6249.99972060395
9942  ekin = 6249.99972060395 | epot = 0 | etot = 6249.99972060395
9943  ekin = 6249.99972060395 | epot = 0 | etot = 6249.99972060395
9944  ekin = 6249.99972060395 | epot = 0 | etot = 6249.99972060395
9945  ekin = 6249.99972060395 | epot = 0 | etot = 6249.99972060395
9946  ekin = 6249.99972060395 | epot = 0 | etot = 6249.99972060395
9947  ekin = 6249.99972060395 | epot = 0 | etot = 6249.99972060395
9948  ekin = 6249.99972060395 | epot = 0 | etot = 6249.99972060395
9949  ekin = 6249.99972060395 | epot = 0 | etot = 6249.99972060395
9950  ekin = 6249.99972060395 | epot = 0 | etot = 6249.99972060395
9951  ekin = 6249.99972060395 | epot = 0 | etot = 6249.99972060395
9952  ekin = 6249.99972060395 | epot = 0 | etot = 6249.99972060395
9953  ekin = 6249.99972060395 | epot = 0 | etot = 6249.99972060395
9954  ekin = 6249.99972060395 | epot = 0 | etot = 6249.99972060395
9955  ekin = 6249.99972060395 | epot = 0 | etot = 6249.99972060395
9956  ekin = 6249.99972060395 | epot = 0 | etot = 6249.99972060395
9957  ekin = 6249.99972060395 | epot = 0 | etot = 6249.99972060395
9958  ekin = 6249.99972060395 | epot = 0 | etot = 6249.99972060395
9959  ekin = 6249.99972060395 | epot = 0 | etot = 6249.99972060395
9960  ekin = 6249.99972060395 | epot = 0 | etot = 6249.99972060395
9961  ekin = 6249.99972060395 | epot = 0 | etot = 6249.99972060395
9962  ekin = 6249.99972060395 | epot = 0 | etot = 6249.99972060395
9963  ekin = 6249.99972060395 | epot = 0 | etot = 6249.99972060395
9964  ekin = 6249.99972060395 | epot = 0 | etot = 6249.99972060395
9965  ekin = 6249.99972060395 | epot = 0 | etot = 6249.99972060395
9966  ekin = 6249.99972060395 | epot = 0 | etot = 6249.99972060395
9967  ekin = 6249.99972060395 | epot = 0 | etot = 6249.99972060395
9968  ekin = 6249.99972060395 | epot = 0 | etot = 6249.99972060395
9969  ekin = 6249.99972060395 | epot = 0 | etot = 6249.99972060395
9970  ekin = 6249.99972060395 | epot = 0 | etot = 6249.99972060395
9971  ekin = 6249.99972060395 | epot = 0 | etot = 6249.99972060395
9972  ekin = 6249.99972060395 | epot = 0 | etot = 6249.99972060395
9973  ekin = 6249.99972060395 | epot = 0 | etot = 6249.99972060395
9974  ekin = 6249.99972060395 | epot = 0 | etot = 6249.99972060395
9975  ekin = 6249.99972060395 | epot = 0 | etot = 6249.99972060395
9976  ekin = 6249.99972060395 | epot = 0 | etot = 6249.99972060395
9977  ekin = 6249.99972060395 | epot = 0 | etot = 6249.99972060395
9978  ekin = 6249.99972060395 | epot = 0 | etot = 6249.99972060395
9979  ekin = 6249.99972060395 | epot = 0 | etot = 6249.99972060395
9980  ekin = 6249.99972060395 | epot = 0 | etot = 6249.99972060395
9981  ekin = 6249.99972060395 | epot = 0 | etot = 6249.99972060395
9982  ekin = 6249.99972060395 | epot = 0 | etot = 6249.99972060395
9983  ekin = 6249.99972060395 | epot = 0 | etot = 6249.99972060395
9984  ekin = 6249.99972060395 | epot = 0 | etot = 6249.99972060395
9985  ekin = 6249.99972060395 | epot = 0 | etot = 6249.99972060395
9986  ekin = 6249.99972060395 | epot = 0 | etot = 6249.99972060395
9987  ekin = 6249.99972060395 | epot = 0 | etot = 6249.99972060395
9988  ekin = 6249.99972060395 | epot = 0 | etot = 6249.99972060395
9989  ekin = 6249.99972060395 | epot = 0 | etot = 6249.99972060395
9990  ekin = 6249.99972060395 | epot = 0 | etot = 6249.99972060395
9991  ekin = 6249.99972060395 | epot = 0 | etot = 6249.99972060395
9992  ekin = 6249.99972060395 | epot = 0 | etot = 6249.99972060395
9993  ekin = 6249.99972060395 | epot = 0 | etot = 6249.99972060395
9994  ekin = 6249.99972060395 | epot = 0 | etot = 6249.99972060395
9995  ekin = 6249.99972060395 | epot = 0 | etot = 6249.99972060395
9996  ekin = 6249.99972060395 | epot = 0 | etot = 6249.99972060395
9997  ekin = 6249.99972060395 | epot = 0 | etot = 6249.99972060395
9998  ekin = 6249.99972060395 | epot = 0 | etot = 6249.99972060395
9999  ekin = 6249.99972060395 | epot = 0 | etot = 6249.99972060395
10000  ekin = 6249.99972060395 | epot = 0 | etot = 6249.99972060395
     10000   1388.8888      0              0              1562.4999      26.041666    
Loop time of 39.824 on 2 procs for 10000 steps with 4 atoms

Performance: 21695.471 tau/day, 251.105 timesteps/s, 1.004 katom-step/s
97.1% CPU use with 2 MPI tasks x 1 OpenMP threads

MPI task timing breakdown:
Section |  min time  |  avg time  |  max time  |%varavg| %total
---------------------------------------------------------------
Pair    | 0.43328    | 0.43792    | 0.44257    |   0.7 |  1.10
Neigh   | 25.594     | 27.163     | 28.732     |  30.1 | 68.21
Comm    | 5.0013     | 5.1699     | 5.3385     |   7.4 | 12.98
Output  | 0.70478    | 1.1834     | 1.6621     |  44.0 |  2.97
Modify  | 3.2597     | 4.7352     | 6.2107     |  67.8 | 11.89
Other   |            | 1.134      |            |       |  2.85

Nlocal:              2 ave           2 max           2 min
Histogram: 2 0 0 0 0 0 0 0 0 0
Nghost:              0 ave           0 max           0 min
Histogram: 2 0 0 0 0 0 0 0 0 0
Neighs:              0 ave           0 max           0 min
Histogram: 2 0 0 0 0 0 0 0 0 0

Total # of neighbors = 0
Ave neighs/atom = 0
Neighbor list builds = 10000
Dangerous builds = 10000

write_data data_out.* nocoeff
System init for write_data ...
Generated 0 of 0 mixed pair_coeff terms from geometric mixing rule

Total wall time: 0:00:39
