LAMMPS (27 Jun 2024)
KOKKOS mode with Kokkos version 4.3.1 is enabled (../kokkos.cpp:72)
package kokkos
package kokkos comm device
###
# Box and units  (use LJ units and periodic boundaries)
###

units lj

atom_style ellipsoid

boundary        p p p

neighbor 0.0 bin
neigh_modify every 1 delay 0 check yes

#read_data lmp_data
read_data lmp_data_ordered
Reading data file ...
  orthogonal box = (-2 -2 -5) to (2 2 5)
  1 by 1 by 2 MPI processor grid
  reading atoms ...
  3 atoms
  reading velocities ...
  3 velocities
  3 ellipsoids
  read_data CPU = 0.012 seconds

reset_timestep 0

######################

group all type 1
3 atoms in group all
group polymer type 1
3 atoms in group polymer

###
# Dump configs + box coords
###
compute q all property/atom quatw quati quatj quatk
compute diameter all property/atom shapex shapey shapez
dump 1 all custom 1 dump.polymer id type x y z c_q[1] c_q[2] c_q[3] c_q[4] c_diameter[1] c_diameter[2] c_diameter[3]
dump_modify 1 colname c_q[1] quatw colname c_q[2] quati colname c_q[3] quatj colname c_q[4] quatk
dump_modify 1 colname c_diameter[1] shapex colname c_diameter[2] shapey colname c_diameter[3] shapez
#dump   1   all   custom   100000   polymer.dump.*  id x y z  ix iy iz
#dump_modify   1   format line "%d %.5f %.5f %.5f %d %d %d"
#dump   id all atom 1000 dump.polymer

###################################################################
# Stiffness term
#
# E = K * (theta-thera0)**2, K>0
#
#angle_style   harmonic
#angle_coeff   1 2.0 120.0
###################################################################

###################################################################
# Pair interaction between non-bonded atoms
#
#  Lennard-Jones 12-6 potential with cutoff:
#  potential E=4epsilon[ (sigma/r)^12 - (sigma/r)^6]  for r<r_cut
#
#  1.12246152962189 = 2^(1/6) is the minimum of the potential

pair_style      lj/cut 0.112246152962189

#
#  pair_coeff for lj/cut, specify 4:
#    * atom type interacting with
#    * atom type
#    * epsilon (energy units)
#    * sigma (distance units)
#

pair_coeff      1 1 0.1 0.1

#
#  pair_modify shift yes adds a constant to the potential such
#  that E(r_cut)=0. Forces remains unchanged.
#

pair_modify     shift yes

###################################################

#comm_modify cutoff 6
#comm_style tiled
#balance 1.2 rcb

###
# Set up fixes
###

fix 1 all   nve   ###NVE ensemble

compute ekin all ke
compute epot all pe
variable ekin equal c_ekin
variable epot equal c_epot
variable etot equal c_ekin+c_epot

fix 2 all print 1 "$(step)  ekin = ${ekin} | epot = ${epot} | etot = ${etot}" screen yes

##### Sample thermodynamic info  (temperature, energy, pressure, etc.) #####
#thermo 10000
#thermo_style   custom   step  temp  epair  emol  press pxx pyy pzz  vol
############################################################################

timestep 0.001

run 10000

CITE-CITE-CITE-CITE-CITE-CITE-CITE-CITE-CITE-CITE-CITE-CITE-CITE

Your simulation uses code contributions which should be cited:

- Type Label Framework: https://doi.org/10.1021/acs.jpcb.3c08419

@Article{Gissinger24,
 author = {Jacob R. Gissinger, Ilia Nikiforov, Yaser Afshar, Brendon Waters, Moon-ki Choi, Daniel S. Karls, Alexander Stukowski, Wonpil Im, Hendrik Heinz, Axel Kohlmeyer, and Ellad B. Tadmor},
 title = {Type Label Framework for Bonded Force Fields in LAMMPS},
 journal = {J. Phys. Chem. B},
 year =    2024,
 volume =  128,
 number =  13,
 pages =   {3282–-3297}
}

CITE-CITE-CITE-CITE-CITE-CITE-CITE-CITE-CITE-CITE-CITE-CITE-CITE

Generated 0 of 0 mixed pair_coeff terms from geometric mixing rule
Neighbor list info ...
  update: every = 1 steps, delay = 0 steps, check = yes
  max neighbors/atom: 2000, page size: 100000
  master list distance cutoff = 0.11224615
  ghost atom cutoff = 0.11224615
  binsize = 0.056123076, bins = 72 72 179
  1 neighbor lists, perpetual/occasional/extra = 1 0 0
  (1) pair lj/cut/kk, perpetual
      attributes: half, newton on, kokkos_device
      pair build: half/bin/newton/kk/device
      stencil: half/bin/3d
      bin: kk/device
0  ekin = 4687.49979045296 | epot = 0 | etot = 4687.49979045296
Per MPI rank memory allocation (min/avg/max) = 5.049 | 5.112 | 5.174 Mbytes
   Step          Temp          E_pair         E_mol          TotEng         Press     
         0   1562.4999      0              0              1562.4999      19.531249    
1  ekin = 4687.49979045296 | epot = 0 | etot = 4687.49979045296
2  ekin = 4687.49979045296 | epot = 0 | etot = 4687.49979045296
3  ekin = 4687.49979045296 | epot = 0 | etot = 4687.49979045296
4  ekin = 4687.49979045296 | epot = 0 | etot = 4687.49979045296
5  ekin = 4687.49979045296 | epot = 0 | etot = 4687.49979045296
6  ekin = 4687.49979045296 | epot = 0 | etot = 4687.49979045296
7  ekin = 4687.49979045296 | epot = 0 | etot = 4687.49979045296
8  ekin = 4687.49979045296 | epot = 0 | etot = 4687.49979045296
9  ekin = 4687.49979045296 | epot = 0 | etot = 4687.49979045296
10  ekin = 4687.49979045296 | epot = 0 | etot = 4687.49979045296
11  ekin = 4687.49979045296 | epot = 0 | etot = 4687.49979045296
12  ekin = 4687.49979045296 | epot = 0 | etot = 4687.49979045296
13  ekin = 4687.49979045296 | epot = 0 | etot = 4687.49979045296
14  ekin = 4687.49979045296 | epot = 0 | etot = 4687.49979045296
15  ekin = 4687.49979045296 | epot = 0 | etot = 4687.49979045296
16  ekin = 4687.49979045296 | epot = 0 | etot = 4687.49979045296
17  ekin = 4687.49979045296 | epot = 0 | etot = 4687.49979045296
18  ekin = 4687.49979045296 | epot = 0 | etot = 4687.49979045296
19  ekin = 4687.49979045296 | epot = 0 | etot = 4687.49979045296
20  ekin = 4687.49979045296 | epot = 0 | etot = 4687.49979045296
21  ekin = 4687.49979045296 | epot = 0 | etot = 4687.49979045296
22  ekin = 4687.49979045296 | epot = 0 | etot = 4687.49979045296
23  ekin = 4687.49979045296 | epot = 0 | etot = 4687.49979045296
24  ekin = 4687.49979045296 | epot = 0 | etot = 4687.49979045296
25  ekin = 4687.49979045296 | epot = 0 | etot = 4687.49979045296
26  ekin = 4687.49979045296 | epot = 0 | etot = 4687.49979045296
27  ekin = 4687.49979045296 | epot = 0 | etot = 4687.49979045296
28  ekin = 4687.49979045296 | epot = 0 | etot = 4687.49979045296
29  ekin = 4687.49979045296 | epot = 0 | etot = 4687.49979045296
30  ekin = 4687.49979045296 | epot = 0 | etot = 4687.49979045296
31  ekin = 4687.49979045296 | epot = 0 | etot = 4687.49979045296
32  ekin = 4687.49979045296 | epot = 0 | etot = 4687.49979045296
33  ekin = 4687.49979045296 | epot = 0 | etot = 4687.49979045296
34  ekin = 4687.49979045296 | epot = 0 | etot = 4687.49979045296
35  ekin = 4687.49979045296 | epot = 0 | etot = 4687.49979045296
36  ekin = 4687.49979045296 | epot = 0 | etot = 4687.49979045296
37  ekin = 4687.49979045296 | epot = 0 | etot = 4687.49979045296
38  ekin = 4687.49979045296 | epot = 0 | etot = 4687.49979045296
39  ekin = 4687.49979045296 | epot = 0 | etot = 4687.49979045296
40  ekin = 4687.49979045296 | epot = 0 | etot = 4687.49979045296
41  ekin = 4687.49979045296 | epot = 0 | etot = 4687.49979045296
42  ekin = 4687.49979045296 | epot = 0 | etot = 4687.49979045296
43  ekin = 4687.49979045296 | epot = 0 | etot = 4687.49979045296
44  ekin = 4687.49979045296 | epot = 0 | etot = 4687.49979045296
45  ekin = 4687.49979045296 | epot = 0 | etot = 4687.49979045296
46  ekin = 4687.49979045296 | epot = 0 | etot = 4687.49979045296
47  ekin = 4687.49979045296 | epot = 0 | etot = 4687.49979045296
48  ekin = 4687.49979045296 | epot = 0 | etot = 4687.49979045296
49  ekin = 4687.49979045296 | epot = 0 | etot = 4687.49979045296
50  ekin = 4687.49979045296 | epot = 0 | etot = 4687.49979045296
51  ekin = 4687.49979045296 | epot = 0 | etot = 4687.49979045296
52  ekin = 4687.49979045296 | epot = 0 | etot = 4687.49979045296
53  ekin = 4687.49979045296 | epot = 0 | etot = 4687.49979045296
54  ekin = 4687.49979045296 | epot = 0 | etot = 4687.49979045296
55  ekin = 4687.49979045296 | epot = 0 | etot = 4687.49979045296
56  ekin = 4687.49979045296 | epot = 0 | etot = 4687.49979045296
57  ekin = 4687.49979045296 | epot = 0 | etot = 4687.49979045296
58  ekin = 4687.49979045296 | epot = 0 | etot = 4687.49979045296
59  ekin = 4687.49979045296 | epot = 0 | etot = 4687.49979045296
60  ekin = 4687.49979045296 | epot = 0 | etot = 4687.49979045296
61  ekin = 4687.49979045296 | epot = 0 | etot = 4687.49979045296
62  ekin = 4687.49979045296 | epot = 0 | etot = 4687.49979045296
63  ekin = 4687.49979045296 | epot = 0 | etot = 4687.49979045296
64  ekin = 4687.49979045296 | epot = 0 | etot = 4687.49979045296
65  ekin = 4687.49979045296 | epot = 0 | etot = 4687.49979045296
66  ekin = 4687.49979045296 | epot = 0 | etot = 4687.49979045296
67  ekin = 4687.49979045296 | epot = 0 | etot = 4687.49979045296
68  ekin = 4687.49979045296 | epot = 0 | etot = 4687.49979045296
69  ekin = 4687.49979045296 | epot = 0 | etot = 4687.49979045296
70  ekin = 4687.49979045296 | epot = 0 | etot = 4687.49979045296
71  ekin = 4687.49979045296 | epot = 0 | etot = 4687.49979045296
72  ekin = 4687.49979045296 | epot = 0 | etot = 4687.49979045296
73  ekin = 4687.49979045296 | epot = 0 | etot = 4687.49979045296
74  ekin = 4687.49979045296 | epot = 0 | etot = 4687.49979045296
75  ekin = 4687.49979045296 | epot = 0 | etot = 4687.49979045296
76  ekin = 4687.49979045296 | epot = 0 | etot = 4687.49979045296
77  ekin = 4687.49979045296 | epot = 0 | etot = 4687.49979045296
78  ekin = 4687.49979045296 | epot = 0 | etot = 4687.49979045296
79  ekin = 4687.49979045296 | epot = 0 | etot = 4687.49979045296
80  ekin = 4687.49979045296 | epot = 0 | etot = 4687.49979045296
81  ekin = 4687.49979045296 | epot = 0 | etot = 4687.49979045296
82  ekin = 4687.49979045296 | epot = 0 | etot = 4687.49979045296
83  ekin = 4687.49979045296 | epot = 0 | etot = 4687.49979045296
84  ekin = 4687.49979045296 | epot = 0 | etot = 4687.49979045296
85  ekin = 4687.49979045296 | epot = 0 | etot = 4687.49979045296
86  ekin = 4687.49979045296 | epot = 0 | etot = 4687.49979045296
87  ekin = 4687.49979045296 | epot = 0 | etot = 4687.49979045296
88  ekin = 4687.49979045296 | epot = 0 | etot = 4687.49979045296
89  ekin = 4687.49979045296 | epot = 0 | etot = 4687.49979045296
90  ekin = 4687.49979045296 | epot = 0 | etot = 4687.49979045296
91  ekin = 4687.49979045296 | epot = 0 | etot = 4687.49979045296
92  ekin = 4687.49979045296 | epot = 0 | etot = 4687.49979045296
93  ekin = 4687.49979045296 | epot = 0 | etot = 4687.49979045296
94  ekin = 4687.49979045296 | epot = 0 | etot = 4687.49979045296
95  ekin = 4687.49979045296 | epot = 0 | etot = 4687.49979045296
96  ekin = 4687.49979045296 | epot = 0 | etot = 4687.49979045296
97  ekin = 4687.49979045296 | epot = 0 | etot = 4687.49979045296
98  ekin = 4687.49979045296 | epot = 0 | etot = 4687.49979045296
99  ekin = 4687.49979045296 | epot = 0 | etot = 4687.49979045296
100  ekin = 4687.49979045296 | epot = 0 | etot = 4687.49979045296
101  ekin = 4687.49979045296 | epot = 0 | etot = 4687.49979045296
102  ekin = 4687.49979045296 | epot = 0 | etot = 4687.49979045296
103  ekin = 4687.49979045296 | epot = 0 | etot = 4687.49979045296
104  ekin = 4687.49979045296 | epot = 0 | etot = 4687.49979045296
105  ekin = 4687.49979045296 | epot = 0 | etot = 4687.49979045296
106  ekin = 4687.49979045296 | epot = 0 | etot = 4687.49979045296
107  ekin = 4687.49979045296 | epot = 0 | etot = 4687.49979045296
108  ekin = 4687.49979045296 | epot = 0 | etot = 4687.49979045296
109  ekin = 4687.49979045296 | epot = 0 | etot = 4687.49979045296
110  ekin = 4687.49979045296 | epot = 0 | etot = 4687.49979045296
111  ekin = 4687.49979045296 | epot = 0 | etot = 4687.49979045296
112  ekin = 4687.49979045296 | epot = 0 | etot = 4687.49979045296
113  ekin = 4687.49979045296 | epot = 0 | etot = 4687.49979045296
114  ekin = 4687.49979045296 | epot = 0 | etot = 4687.49979045296
115  ekin = 4687.49979045296 | epot = 0 | etot = 4687.49979045296
116  ekin = 4687.49979045296 | epot = 0 | etot = 4687.49979045296
117  ekin = 4687.49979045296 | epot = 0 | etot = 4687.49979045296
118  ekin = 4687.49979045296 | epot = 0 | etot = 4687.49979045296
119  ekin = 4687.49979045296 | epot = 0 | etot = 4687.49979045296
120  ekin = 4687.49979045296 | epot = 0 | etot = 4687.49979045296
121  ekin = 4687.49979045296 | epot = 0 | etot = 4687.49979045296
122  ekin = 4687.49979045296 | epot = 0 | etot = 4687.49979045296
123  ekin = 4687.49979045296 | epot = 0 | etot = 4687.49979045296
124  ekin = 4687.49979045296 | epot = 0 | etot = 4687.49979045296
125  ekin = 4687.49979045296 | epot = 0 | etot = 4687.49979045296
126  ekin = 4687.49979045296 | epot = 0 | etot = 4687.49979045296
127  ekin = 4687.49979045296 | epot = 0 | etot = 4687.49979045296
128  ekin = 4687.49979045296 | epot = 0 | etot = 4687.49979045296
129  ekin = 4687.49979045296 | epot = 0 | etot = 4687.49979045296
130  ekin = 4687.49979045296 | epot = 0 | etot = 4687.49979045296
131  ekin = 4687.49979045296 | epot = 0 | etot = 4687.49979045296
132  ekin = 4687.49979045296 | epot = 0 | etot = 4687.49979045296
133  ekin = 4687.49979045296 | epot = 0 | etot = 4687.49979045296
134  ekin = 4687.49979045296 | epot = 0 | etot = 4687.49979045296
135  ekin = 4687.49979045296 | epot = 0 | etot = 4687.49979045296
136  ekin = 4687.49979045296 | epot = 0 | etot = 4687.49979045296
137  ekin = 4687.49979045296 | epot = 0 | etot = 4687.49979045296
138  ekin = 4687.49979045296 | epot = 0 | etot = 4687.49979045296
139  ekin = 4687.49979045296 | epot = 0 | etot = 4687.49979045296
140  ekin = 4687.49979045296 | epot = 0 | etot = 4687.49979045296
141  ekin = 4687.49979045296 | epot = 0 | etot = 4687.49979045296
142  ekin = 4687.49979045296 | epot = 0 | etot = 4687.49979045296
143  ekin = 4687.49979045296 | epot = 0 | etot = 4687.49979045296
144  ekin = 4687.49979045296 | epot = 0 | etot = 4687.49979045296
145  ekin = 4687.49979045296 | epot = 0 | etot = 4687.49979045296
146  ekin = 4687.49979045296 | epot = 0 | etot = 4687.49979045296
147  ekin = 4687.49979045296 | epot = 0 | etot = 4687.49979045296
148  ekin = 4687.49979045296 | epot = 0 | etot = 4687.49979045296
149  ekin = 4687.49979045296 | epot = 0 | etot = 4687.49979045296
150  ekin = 4687.49979045296 | epot = 0 | etot = 4687.49979045296
151  ekin = 4687.49979045296 | epot = 0 | etot = 4687.49979045296
152  ekin = 4687.49979045296 | epot = 0 | etot = 4687.49979045296
153  ekin = 4687.49979045296 | epot = 0 | etot = 4687.49979045296
154  ekin = 4687.49979045296 | epot = 0 | etot = 4687.49979045296
155  ekin = 4687.49979045296 | epot = 0 | etot = 4687.49979045296
156  ekin = 4687.49979045296 | epot = 0 | etot = 4687.49979045296
157  ekin = 4687.49979045296 | epot = 0 | etot = 4687.49979045296
158  ekin = 4687.49979045296 | epot = 0 | etot = 4687.49979045296
159  ekin = 4687.49979045296 | epot = 0 | etot = 4687.49979045296
160  ekin = 4687.49979045296 | epot = 0 | etot = 4687.49979045296
161  ekin = 4687.49979045296 | epot = 0 | etot = 4687.49979045296
162  ekin = 4687.49979045296 | epot = 0 | etot = 4687.49979045296
163  ekin = 4687.49979045296 | epot = 0 | etot = 4687.49979045296
164  ekin = 4687.49979045296 | epot = 0 | etot = 4687.49979045296
165  ekin = 4687.49979045296 | epot = 0 | etot = 4687.49979045296
166  ekin = 4687.49979045296 | epot = 0 | etot = 4687.49979045296
167  ekin = 4687.49979045296 | epot = 0 | etot = 4687.49979045296
168  ekin = 4687.49979045296 | epot = 0 | etot = 4687.49979045296
169  ekin = 4687.49979045296 | epot = 0 | etot = 4687.49979045296
170  ekin = 4687.49979045296 | epot = 0 | etot = 4687.49979045296
171  ekin = 4687.49979045296 | epot = 0 | etot = 4687.49979045296
172  ekin = 4687.49979045296 | epot = 0 | etot = 4687.49979045296
173  ekin = 4687.49979045296 | epot = 0 | etot = 4687.49979045296
174  ekin = 4687.49979045296 | epot = 0 | etot = 4687.49979045296
175  ekin = 4687.49979045296 | epot = 0 | etot = 4687.49979045296
176  ekin = 4687.49979045296 | epot = 0 | etot = 4687.49979045296
177  ekin = 4687.49979045296 | epot = 0 | etot = 4687.49979045296
178  ekin = 4687.49979045296 | epot = 0 | etot = 4687.49979045296
179  ekin = 4687.49979045296 | epot = 0 | etot = 4687.49979045296
180  ekin = 4687.49979045296 | epot = 0 | etot = 4687.49979045296
181  ekin = 4687.49979045296 | epot = 0 | etot = 4687.49979045296
182  ekin = 4687.49979045296 | epot = 0 | etot = 4687.49979045296
183  ekin = 4687.49979045296 | epot = 0 | etot = 4687.49979045296
184  ekin = 4687.49979045296 | epot = 0 | etot = 4687.49979045296
185  ekin = 4687.49979045296 | epot = 0 | etot = 4687.49979045296
186  ekin = 4687.49979045296 | epot = 0 | etot = 4687.49979045296
187  ekin = 4687.49979045296 | epot = 0 | etot = 4687.49979045296
188  ekin = 4687.49979045296 | epot = 0 | etot = 4687.49979045296
189  ekin = 4687.49979045296 | epot = 0 | etot = 4687.49979045296
190  ekin = 4687.49979045296 | epot = 0 | etot = 4687.49979045296
191  ekin = 4687.49979045296 | epot = 0 | etot = 4687.49979045296
192  ekin = 4687.49979045296 | epot = 0 | etot = 4687.49979045296
193  ekin = 4687.49979045296 | epot = 0 | etot = 4687.49979045296
194  ekin = 4687.49979045296 | epot = 0 | etot = 4687.49979045296
195  ekin = 4687.49979045296 | epot = 0 | etot = 4687.49979045296
196  ekin = 4687.49979045296 | epot = 0 | etot = 4687.49979045296
197  ekin = 4687.49979045296 | epot = 0 | etot = 4687.49979045296
198  ekin = 4687.49979045296 | epot = 0 | etot = 4687.49979045296
199  ekin = 4687.49979045296 | epot = 0 | etot = 4687.49979045296
200  ekin = 4687.49979045296 | epot = 0 | etot = 4687.49979045296
201  ekin = 4687.49979045296 | epot = 0 | etot = 4687.49979045296
202  ekin = 4687.49979045296 | epot = 0 | etot = 4687.49979045296
203  ekin = 4687.49979045296 | epot = 0 | etot = 4687.49979045296
204  ekin = 4687.49979045296 | epot = 0 | etot = 4687.49979045296
205  ekin = 4687.49979045296 | epot = 0 | etot = 4687.49979045296
206  ekin = 4687.49979045296 | epot = 0 | etot = 4687.49979045296
207  ekin = 4687.49979045296 | epot = 0 | etot = 4687.49979045296
208  ekin = 4687.49979045296 | epot = 0 | etot = 4687.49979045296
209  ekin = 4687.49979045296 | epot = 0 | etot = 4687.49979045296
210  ekin = 4687.49979045296 | epot = 0 | etot = 4687.49979045296
211  ekin = 4687.49979045296 | epot = 0 | etot = 4687.49979045296
212  ekin = 4687.49979045296 | epot = 0 | etot = 4687.49979045296
213  ekin = 4687.49979045296 | epot = 0 | etot = 4687.49979045296
214  ekin = 4687.49979045296 | epot = 0 | etot = 4687.49979045296
215  ekin = 4687.49979045296 | epot = 0 | etot = 4687.49979045296
216  ekin = 4687.49979045296 | epot = 0 | etot = 4687.49979045296
217  ekin = 4687.49979045296 | epot = 0 | etot = 4687.49979045296
218  ekin = 4687.49979045296 | epot = 0 | etot = 4687.49979045296
219  ekin = 4687.49979045296 | epot = 0 | etot = 4687.49979045296
220  ekin = 4687.49979045296 | epot = 0 | etot = 4687.49979045296
221  ekin = 4687.49979045296 | epot = 0 | etot = 4687.49979045296
222  ekin = 4687.49979045296 | epot = 0 | etot = 4687.49979045296
223  ekin = 4687.49979045296 | epot = 0 | etot = 4687.49979045296
224  ekin = 4687.49979045296 | epot = 0 | etot = 4687.49979045296
225  ekin = 4687.49979045296 | epot = 0 | etot = 4687.49979045296
226  ekin = 4687.49979045296 | epot = 0 | etot = 4687.49979045296
227  ekin = 4687.49979045296 | epot = 0 | etot = 4687.49979045296
228  ekin = 4687.49979045296 | epot = 0 | etot = 4687.49979045296
229  ekin = 4687.49979045296 | epot = 0 | etot = 4687.49979045296
230  ekin = 4687.49979045296 | epot = 0 | etot = 4687.49979045296
231  ekin = 4687.49979045296 | epot = 0 | etot = 4687.49979045296
232  ekin = 4687.49979045296 | epot = 0 | etot = 4687.49979045296
233  ekin = 4687.49979045296 | epot = 0 | etot = 4687.49979045296
234  ekin = 4687.49979045296 | epot = 0 | etot = 4687.49979045296
235  ekin = 4687.49979045296 | epot = 0 | etot = 4687.49979045296
236  ekin = 4687.49979045296 | epot = 0 | etot = 4687.49979045296
237  ekin = 4687.49979045296 | epot = 0 | etot = 4687.49979045296
238  ekin = 4687.49979045296 | epot = 0 | etot = 4687.49979045296
239  ekin = 4687.49979045296 | epot = 0 | etot = 4687.49979045296
240  ekin = 4687.49979045296 | epot = 0 | etot = 4687.49979045296
241  ekin = 4687.49979045296 | epot = 0 | etot = 4687.49979045296
242  ekin = 4687.49979045296 | epot = 0 | etot = 4687.49979045296
243  ekin = 4687.49979045296 | epot = 0 | etot = 4687.49979045296
244  ekin = 4687.49979045296 | epot = 0 | etot = 4687.49979045296
245  ekin = 4687.49979045296 | epot = 0 | etot = 4687.49979045296
246  ekin = 4687.49979045296 | epot = 0 | etot = 4687.49979045296
247  ekin = 4687.49979045296 | epot = 0 | etot = 4687.49979045296
248  ekin = 4687.49979045296 | epot = 0 | etot = 4687.49979045296
249  ekin = 4687.49979045296 | epot = 0 | etot = 4687.49979045296
250  ekin = 4687.49979045296 | epot = 0 | etot = 4687.49979045296
251  ekin = 4687.49979045296 | epot = 0 | etot = 4687.49979045296
252  ekin = 4687.49979045296 | epot = 0 | etot = 4687.49979045296
253  ekin = 4687.49979045296 | epot = 0 | etot = 4687.49979045296
254  ekin = 4687.49979045296 | epot = 0 | etot = 4687.49979045296
255  ekin = 4687.49979045296 | epot = 0 | etot = 4687.49979045296
256  ekin = 4687.49979045296 | epot = 0 | etot = 4687.49979045296
257  ekin = 4687.49979045296 | epot = 0 | etot = 4687.49979045296
258  ekin = 4687.49979045296 | epot = 0 | etot = 4687.49979045296
259  ekin = 4687.49979045296 | epot = 0 | etot = 4687.49979045296
260  ekin = 4687.49979045296 | epot = 0 | etot = 4687.49979045296
261  ekin = 4687.49979045296 | epot = 0 | etot = 4687.49979045296
262  ekin = 4687.49979045296 | epot = 0 | etot = 4687.49979045296
263  ekin = 4687.49979045296 | epot = 0 | etot = 4687.49979045296
264  ekin = 4687.49979045296 | epot = 0 | etot = 4687.49979045296
265  ekin = 4687.49979045296 | epot = 0 | etot = 4687.49979045296
266  ekin = 4687.49979045296 | epot = 0 | etot = 4687.49979045296
267  ekin = 4687.49979045296 | epot = 0 | etot = 4687.49979045296
268  ekin = 4687.49979045296 | epot = 0 | etot = 4687.49979045296
269  ekin = 4687.49979045296 | epot = 0 | etot = 4687.49979045296
270  ekin = 4687.49979045296 | epot = 0 | etot = 4687.49979045296
271  ekin = 4687.49979045296 | epot = 0 | etot = 4687.49979045296
272  ekin = 4687.49979045296 | epot = 0 | etot = 4687.49979045296
273  ekin = 4687.49979045296 | epot = 0 | etot = 4687.49979045296
274  ekin = 4687.49979045296 | epot = 0 | etot = 4687.49979045296
275  ekin = 4687.49979045296 | epot = 0 | etot = 4687.49979045296
276  ekin = 4687.49979045296 | epot = 0 | etot = 4687.49979045296
277  ekin = 4687.49979045296 | epot = 0 | etot = 4687.49979045296
278  ekin = 4687.49979045296 | epot = 0 | etot = 4687.49979045296
279  ekin = 4687.49979045296 | epot = 0 | etot = 4687.49979045296
280  ekin = 4687.49979045296 | epot = 0 | etot = 4687.49979045296
281  ekin = 4687.49979045296 | epot = 0 | etot = 4687.49979045296
282  ekin = 4687.49979045296 | epot = 0 | etot = 4687.49979045296
283  ekin = 4687.49979045296 | epot = 0 | etot = 4687.49979045296
284  ekin = 4687.49979045296 | epot = 0 | etot = 4687.49979045296
285  ekin = 4687.49979045296 | epot = 0 | etot = 4687.49979045296
286  ekin = 4687.49979045296 | epot = 0 | etot = 4687.49979045296
287  ekin = 4687.49979045296 | epot = 0 | etot = 4687.49979045296
288  ekin = 4687.49979045296 | epot = 0 | etot = 4687.49979045296
289  ekin = 4687.49979045296 | epot = 0 | etot = 4687.49979045296
290  ekin = 4687.49979045296 | epot = 0 | etot = 4687.49979045296
291  ekin = 4687.49979045296 | epot = 0 | etot = 4687.49979045296
292  ekin = 4687.49979045296 | epot = 0 | etot = 4687.49979045296
293  ekin = 4687.49979045296 | epot = 0 | etot = 4687.49979045296
294  ekin = 4687.49979045296 | epot = 0 | etot = 4687.49979045296
295  ekin = 4687.49979045296 | epot = 0 | etot = 4687.49979045296
296  ekin = 4687.49979045296 | epot = 0 | etot = 4687.49979045296
297  ekin = 4687.49979045296 | epot = 0 | etot = 4687.49979045296
298  ekin = 4687.49979045296 | epot = 0 | etot = 4687.49979045296
299  ekin = 4687.49979045296 | epot = 0 | etot = 4687.49979045296
300  ekin = 4687.49979045296 | epot = 0 | etot = 4687.49979045296
301  ekin = 4687.49979045296 | epot = 0 | etot = 4687.49979045296
302  ekin = 4687.49979045296 | epot = 0 | etot = 4687.49979045296
303  ekin = 4687.49979045296 | epot = 0 | etot = 4687.49979045296
304  ekin = 4687.49979045296 | epot = 0 | etot = 4687.49979045296
305  ekin = 4687.49979045296 | epot = 0 | etot = 4687.49979045296
306  ekin = 4687.49979045296 | epot = 0 | etot = 4687.49979045296
307  ekin = 4687.49979045296 | epot = 0 | etot = 4687.49979045296
308  ekin = 4687.49979045296 | epot = 0 | etot = 4687.49979045296
309  ekin = 4687.49979045296 | epot = 0 | etot = 4687.49979045296
310  ekin = 4687.49979045296 | epot = 0 | etot = 4687.49979045296
311  ekin = 4687.49979045296 | epot = 0 | etot = 4687.49979045296
312  ekin = 4687.49979045296 | epot = 0 | etot = 4687.49979045296
313  ekin = 4687.49979045296 | epot = 0 | etot = 4687.49979045296
314  ekin = 4687.49979045296 | epot = 0 | etot = 4687.49979045296
315  ekin = 4687.49979045296 | epot = 0 | etot = 4687.49979045296
316  ekin = 4687.49979045296 | epot = 0 | etot = 4687.49979045296
317  ekin = 4687.49979045296 | epot = 0 | etot = 4687.49979045296
318  ekin = 4687.49979045296 | epot = 0 | etot = 4687.49979045296
319  ekin = 4687.49979045296 | epot = 0 | etot = 4687.49979045296
320  ekin = 4687.49979045296 | epot = 0 | etot = 4687.49979045296
321  ekin = 4687.49979045296 | epot = 0 | etot = 4687.49979045296
322  ekin = 4687.49979045296 | epot = 0 | etot = 4687.49979045296
323  ekin = 4687.49979045296 | epot = 0 | etot = 4687.49979045296
324  ekin = 4687.49979045296 | epot = 0 | etot = 4687.49979045296
325  ekin = 4687.49979045296 | epot = 0 | etot = 4687.49979045296
326  ekin = 4687.49979045296 | epot = 0 | etot = 4687.49979045296
327  ekin = 4687.49979045296 | epot = 0 | etot = 4687.49979045296
328  ekin = 4687.49979045296 | epot = 0 | etot = 4687.49979045296
329  ekin = 4687.49979045296 | epot = 0 | etot = 4687.49979045296
330  ekin = 4687.49979045296 | epot = 0 | etot = 4687.49979045296
331  ekin = 4687.49979045296 | epot = 0 | etot = 4687.49979045296
332  ekin = 4687.49979045296 | epot = 0 | etot = 4687.49979045296
333  ekin = 4687.49979045296 | epot = 0 | etot = 4687.49979045296
334  ekin = 4687.49979045296 | epot = 0 | etot = 4687.49979045296
335  ekin = 4687.49979045296 | epot = 0 | etot = 4687.49979045296
336  ekin = 4687.49979045296 | epot = 0 | etot = 4687.49979045296
337  ekin = 4687.49979045296 | epot = 0 | etot = 4687.49979045296
338  ekin = 4687.49979045296 | epot = 0 | etot = 4687.49979045296
339  ekin = 4687.49979045296 | epot = 0 | etot = 4687.49979045296
340  ekin = 4687.49979045296 | epot = 0 | etot = 4687.49979045296
341  ekin = 4687.49979045296 | epot = 0 | etot = 4687.49979045296
342  ekin = 4687.49979045296 | epot = 0 | etot = 4687.49979045296
343  ekin = 4687.49979045296 | epot = 0 | etot = 4687.49979045296
344  ekin = 4687.49979045296 | epot = 0 | etot = 4687.49979045296
345  ekin = 4687.49979045296 | epot = 0 | etot = 4687.49979045296
346  ekin = 4687.49979045296 | epot = 0 | etot = 4687.49979045296
347  ekin = 4687.49979045296 | epot = 0 | etot = 4687.49979045296
348  ekin = 4687.49979045296 | epot = 0 | etot = 4687.49979045296
349  ekin = 4687.49979045296 | epot = 0 | etot = 4687.49979045296
350  ekin = 4687.49979045296 | epot = 0 | etot = 4687.49979045296
351  ekin = 4687.49979045296 | epot = 0 | etot = 4687.49979045296
352  ekin = 4687.49979045296 | epot = 0 | etot = 4687.49979045296
353  ekin = 4687.49979045296 | epot = 0 | etot = 4687.49979045296
354  ekin = 4687.49979045296 | epot = 0 | etot = 4687.49979045296
355  ekin = 4687.49979045296 | epot = 0 | etot = 4687.49979045296
356  ekin = 4687.49979045296 | epot = 0 | etot = 4687.49979045296
357  ekin = 4687.49979045296 | epot = 0 | etot = 4687.49979045296
358  ekin = 4687.49979045296 | epot = 0 | etot = 4687.49979045296
359  ekin = 4687.49979045296 | epot = 0 | etot = 4687.49979045296
360  ekin = 4687.49979045296 | epot = 0 | etot = 4687.49979045296
361  ekin = 4687.49979045296 | epot = 0 | etot = 4687.49979045296
362  ekin = 4687.49979045296 | epot = 0 | etot = 4687.49979045296
363  ekin = 4687.49979045296 | epot = 0 | etot = 4687.49979045296
364  ekin = 4687.49979045296 | epot = 0 | etot = 4687.49979045296
365  ekin = 4687.49979045296 | epot = 0 | etot = 4687.49979045296
366  ekin = 4687.49979045296 | epot = 0 | etot = 4687.49979045296
367  ekin = 4687.49979045296 | epot = 0 | etot = 4687.49979045296
368  ekin = 4687.49979045296 | epot = 0 | etot = 4687.49979045296
369  ekin = 4687.49979045296 | epot = 0 | etot = 4687.49979045296
370  ekin = 4687.49979045296 | epot = 0 | etot = 4687.49979045296
371  ekin = 4687.49979045296 | epot = 0 | etot = 4687.49979045296
372  ekin = 4687.49979045296 | epot = 0 | etot = 4687.49979045296
373  ekin = 4687.49979045296 | epot = 0 | etot = 4687.49979045296
374  ekin = 4687.49979045296 | epot = 0 | etot = 4687.49979045296
375  ekin = 4687.49979045296 | epot = 0 | etot = 4687.49979045296
376  ekin = 4687.49979045296 | epot = 0 | etot = 4687.49979045296
377  ekin = 4687.49979045296 | epot = 0 | etot = 4687.49979045296
378  ekin = 4687.49979045296 | epot = 0 | etot = 4687.49979045296
379  ekin = 4687.49979045296 | epot = 0 | etot = 4687.49979045296
380  ekin = 4687.49979045296 | epot = 0 | etot = 4687.49979045296
381  ekin = 4687.49979045296 | epot = 0 | etot = 4687.49979045296
382  ekin = 4687.49979045296 | epot = 0 | etot = 4687.49979045296
383  ekin = 4687.49979045296 | epot = 0 | etot = 4687.49979045296
384  ekin = 4687.49979045296 | epot = 0 | etot = 4687.49979045296
385  ekin = 4687.49979045296 | epot = 0 | etot = 4687.49979045296
386  ekin = 4687.49979045296 | epot = 0 | etot = 4687.49979045296
387  ekin = 4687.49979045296 | epot = 0 | etot = 4687.49979045296
388  ekin = 4687.49979045296 | epot = 0 | etot = 4687.49979045296
389  ekin = 4687.49979045296 | epot = 0 | etot = 4687.49979045296
390  ekin = 4687.49979045296 | epot = 0 | etot = 4687.49979045296
391  ekin = 4687.49979045296 | epot = 0 | etot = 4687.49979045296
392  ekin = 4687.49979045296 | epot = 0 | etot = 4687.49979045296
393  ekin = 4687.49979045296 | epot = 0 | etot = 4687.49979045296
394  ekin = 4687.49979045296 | epot = 0 | etot = 4687.49979045296
395  ekin = 4687.49979045296 | epot = 0 | etot = 4687.49979045296
396  ekin = 4687.49979045296 | epot = 0 | etot = 4687.49979045296
397  ekin = 4687.49979045296 | epot = 0 | etot = 4687.49979045296
398  ekin = 4687.49979045296 | epot = 0 | etot = 4687.49979045296
399  ekin = 4687.49979045296 | epot = 0 | etot = 4687.49979045296
400  ekin = 4687.49979045296 | epot = 0 | etot = 4687.49979045296
401  ekin = 4687.49979045296 | epot = 0 | etot = 4687.49979045296
402  ekin = 4687.49979045296 | epot = 0 | etot = 4687.49979045296
403  ekin = 4687.49979045296 | epot = 0 | etot = 4687.49979045296
404  ekin = 4687.49979045296 | epot = 0 | etot = 4687.49979045296
405  ekin = 4687.49979045296 | epot = 0 | etot = 4687.49979045296
406  ekin = 4687.49979045296 | epot = 0 | etot = 4687.49979045296
407  ekin = 4687.49979045296 | epot = 0 | etot = 4687.49979045296
408  ekin = 4687.49979045296 | epot = 0 | etot = 4687.49979045296
409  ekin = 4687.49979045296 | epot = 0 | etot = 4687.49979045296
410  ekin = 4687.49979045296 | epot = 0 | etot = 4687.49979045296
411  ekin = 4687.49979045296 | epot = 0 | etot = 4687.49979045296
412  ekin = 4687.49979045296 | epot = 0 | etot = 4687.49979045296
413  ekin = 4687.49979045296 | epot = 0 | etot = 4687.49979045296
414  ekin = 4687.49979045296 | epot = 0 | etot = 4687.49979045296
415  ekin = 4687.49979045296 | epot = 0 | etot = 4687.49979045296
416  ekin = 4687.49979045296 | epot = 0 | etot = 4687.49979045296
417  ekin = 4687.49979045296 | epot = 0 | etot = 4687.49979045296
418  ekin = 4687.49979045296 | epot = 0 | etot = 4687.49979045296
419  ekin = 4687.49979045296 | epot = 0 | etot = 4687.49979045296
420  ekin = 4687.49979045296 | epot = 0 | etot = 4687.49979045296
421  ekin = 4687.49979045296 | epot = 0 | etot = 4687.49979045296
422  ekin = 4687.49979045296 | epot = 0 | etot = 4687.49979045296
423  ekin = 4687.49979045296 | epot = 0 | etot = 4687.49979045296
424  ekin = 4687.49979045296 | epot = 0 | etot = 4687.49979045296
425  ekin = 4687.49979045296 | epot = 0 | etot = 4687.49979045296
426  ekin = 4687.49979045296 | epot = 0 | etot = 4687.49979045296
427  ekin = 4687.49979045296 | epot = 0 | etot = 4687.49979045296
428  ekin = 4687.49979045296 | epot = 0 | etot = 4687.49979045296
429  ekin = 4687.49979045296 | epot = 0 | etot = 4687.49979045296
430  ekin = 4687.49979045296 | epot = 0 | etot = 4687.49979045296
431  ekin = 4687.49979045296 | epot = 0 | etot = 4687.49979045296
432  ekin = 4687.49979045296 | epot = 0 | etot = 4687.49979045296
433  ekin = 4687.49979045296 | epot = 0 | etot = 4687.49979045296
434  ekin = 4687.49979045296 | epot = 0 | etot = 4687.49979045296
435  ekin = 4687.49979045296 | epot = 0 | etot = 4687.49979045296
436  ekin = 4687.49979045296 | epot = 0 | etot = 4687.49979045296
437  ekin = 4687.49979045296 | epot = 0 | etot = 4687.49979045296
438  ekin = 4687.49979045296 | epot = 0 | etot = 4687.49979045296
439  ekin = 4687.49979045296 | epot = 0 | etot = 4687.49979045296
440  ekin = 4687.49979045296 | epot = 0 | etot = 4687.49979045296
441  ekin = 4687.49979045296 | epot = 0 | etot = 4687.49979045296
442  ekin = 4687.49979045296 | epot = 0 | etot = 4687.49979045296
443  ekin = 4687.49979045296 | epot = 0 | etot = 4687.49979045296
444  ekin = 4687.49979045296 | epot = 0 | etot = 4687.49979045296
445  ekin = 4687.49979045296 | epot = 0 | etot = 4687.49979045296
446  ekin = 4687.49979045296 | epot = 0 | etot = 4687.49979045296
447  ekin = 4687.49979045296 | epot = 0 | etot = 4687.49979045296
448  ekin = 4687.49979045296 | epot = 0 | etot = 4687.49979045296
449  ekin = 4687.49979045296 | epot = 0 | etot = 4687.49979045296
450  ekin = 4687.49979045296 | epot = 0 | etot = 4687.49979045296
451  ekin = 4687.49979045296 | epot = 0 | etot = 4687.49979045296
452  ekin = 4687.49979045296 | epot = 0 | etot = 4687.49979045296
453  ekin = 4687.49979045296 | epot = 0 | etot = 4687.49979045296
454  ekin = 4687.49979045296 | epot = 0 | etot = 4687.49979045296
455  ekin = 4687.49979045296 | epot = 0 | etot = 4687.49979045296
456  ekin = 4687.49979045296 | epot = 0 | etot = 4687.49979045296
457  ekin = 4687.49979045296 | epot = 0 | etot = 4687.49979045296
458  ekin = 4687.49979045296 | epot = 0 | etot = 4687.49979045296
459  ekin = 4687.49979045296 | epot = 0 | etot = 4687.49979045296
460  ekin = 4687.49979045296 | epot = 0 | etot = 4687.49979045296
461  ekin = 4687.49979045296 | epot = 0 | etot = 4687.49979045296
462  ekin = 4687.49979045296 | epot = 0 | etot = 4687.49979045296
463  ekin = 4687.49979045296 | epot = 0 | etot = 4687.49979045296
464  ekin = 4687.49979045296 | epot = 0 | etot = 4687.49979045296
465  ekin = 4687.49979045296 | epot = 0 | etot = 4687.49979045296
466  ekin = 4687.49979045296 | epot = 0 | etot = 4687.49979045296
467  ekin = 4687.49979045296 | epot = 0 | etot = 4687.49979045296
468  ekin = 4687.49979045296 | epot = 0 | etot = 4687.49979045296
469  ekin = 4687.49979045296 | epot = 0 | etot = 4687.49979045296
470  ekin = 4687.49979045296 | epot = 0 | etot = 4687.49979045296
471  ekin = 4687.49979045296 | epot = 0 | etot = 4687.49979045296
472  ekin = 4687.49979045296 | epot = 0 | etot = 4687.49979045296
473  ekin = 4687.49979045296 | epot = 0 | etot = 4687.49979045296
474  ekin = 4687.49979045296 | epot = 0 | etot = 4687.49979045296
475  ekin = 4687.49979045296 | epot = 0 | etot = 4687.49979045296
476  ekin = 4687.49979045296 | epot = 0 | etot = 4687.49979045296
477  ekin = 4687.49979045296 | epot = 0 | etot = 4687.49979045296
478  ekin = 4687.49979045296 | epot = 0 | etot = 4687.49979045296
479  ekin = 4687.49979045296 | epot = 0 | etot = 4687.49979045296
480  ekin = 4687.49979045296 | epot = 0 | etot = 4687.49979045296
481  ekin = 4687.49979045296 | epot = 0 | etot = 4687.49979045296
482  ekin = 4687.49979045296 | epot = 0 | etot = 4687.49979045296
483  ekin = 4687.49979045296 | epot = 0 | etot = 4687.49979045296
484  ekin = 4687.49979045296 | epot = 0 | etot = 4687.49979045296
485  ekin = 4687.49979045296 | epot = 0 | etot = 4687.49979045296
486  ekin = 4687.49979045296 | epot = 0 | etot = 4687.49979045296
487  ekin = 4687.49979045296 | epot = 0 | etot = 4687.49979045296
488  ekin = 4687.49979045296 | epot = 0 | etot = 4687.49979045296
489  ekin = 4687.49979045296 | epot = 0 | etot = 4687.49979045296
490  ekin = 4687.49979045296 | epot = 0 | etot = 4687.49979045296
491  ekin = 4687.49979045296 | epot = 0 | etot = 4687.49979045296
492  ekin = 4687.49979045296 | epot = 0 | etot = 4687.49979045296
493  ekin = 4687.49979045296 | epot = 0 | etot = 4687.49979045296
494  ekin = 4687.49979045296 | epot = 0 | etot = 4687.49979045296
495  ekin = 4687.49979045296 | epot = 0 | etot = 4687.49979045296
496  ekin = 4687.49979045296 | epot = 0 | etot = 4687.49979045296
497  ekin = 4687.49979045296 | epot = 0 | etot = 4687.49979045296
498  ekin = 4687.49979045296 | epot = 0 | etot = 4687.49979045296
499  ekin = 4687.49979045296 | epot = 0 | etot = 4687.49979045296
500  ekin = 4687.49979045296 | epot = 0 | etot = 4687.49979045296
501  ekin = 4687.49979045296 | epot = 0 | etot = 4687.49979045296
502  ekin = 4687.49979045296 | epot = 0 | etot = 4687.49979045296
503  ekin = 4687.49979045296 | epot = 0 | etot = 4687.49979045296
504  ekin = 4687.49979045296 | epot = 0 | etot = 4687.49979045296
505  ekin = 4687.49979045296 | epot = 0 | etot = 4687.49979045296
506  ekin = 4687.49979045296 | epot = 0 | etot = 4687.49979045296
507  ekin = 4687.49979045296 | epot = 0 | etot = 4687.49979045296
508  ekin = 4687.49979045296 | epot = 0 | etot = 4687.49979045296
509  ekin = 4687.49979045296 | epot = 0 | etot = 4687.49979045296
510  ekin = 4687.49979045296 | epot = 0 | etot = 4687.49979045296
511  ekin = 4687.49979045296 | epot = 0 | etot = 4687.49979045296
512  ekin = 4687.49979045296 | epot = 0 | etot = 4687.49979045296
513  ekin = 4687.49979045296 | epot = 0 | etot = 4687.49979045296
514  ekin = 4687.49979045296 | epot = 0 | etot = 4687.49979045296
515  ekin = 4687.49979045296 | epot = 0 | etot = 4687.49979045296
516  ekin = 4687.49979045296 | epot = 0 | etot = 4687.49979045296
517  ekin = 4687.49979045296 | epot = 0 | etot = 4687.49979045296
518  ekin = 4687.49979045296 | epot = 0 | etot = 4687.49979045296
519  ekin = 4687.49979045296 | epot = 0 | etot = 4687.49979045296
520  ekin = 4687.49979045296 | epot = 0 | etot = 4687.49979045296
521  ekin = 4687.49979045296 | epot = 0 | etot = 4687.49979045296
522  ekin = 4687.49979045296 | epot = 0 | etot = 4687.49979045296
523  ekin = 4687.49979045296 | epot = 0 | etot = 4687.49979045296
524  ekin = 4687.49979045296 | epot = 0 | etot = 4687.49979045296
525  ekin = 4687.49979045296 | epot = 0 | etot = 4687.49979045296
526  ekin = 4687.49979045296 | epot = 0 | etot = 4687.49979045296
527  ekin = 4687.49979045296 | epot = 0 | etot = 4687.49979045296
528  ekin = 4687.49979045296 | epot = 0 | etot = 4687.49979045296
529  ekin = 4687.49979045296 | epot = 0 | etot = 4687.49979045296
530  ekin = 4687.49979045296 | epot = 0 | etot = 4687.49979045296
531  ekin = 4687.49979045296 | epot = 0 | etot = 4687.49979045296
532  ekin = 4687.49979045296 | epot = 0 | etot = 4687.49979045296
533  ekin = 4687.49979045296 | epot = 0 | etot = 4687.49979045296
534  ekin = 4687.49979045296 | epot = 0 | etot = 4687.49979045296
535  ekin = 4687.49979045296 | epot = 0 | etot = 4687.49979045296
536  ekin = 4687.49979045296 | epot = 0 | etot = 4687.49979045296
537  ekin = 4687.49979045296 | epot = 0 | etot = 4687.49979045296
538  ekin = 4687.49979045296 | epot = 0 | etot = 4687.49979045296
539  ekin = 4687.49979045296 | epot = 0 | etot = 4687.49979045296
540  ekin = 4687.49979045296 | epot = 0 | etot = 4687.49979045296
541  ekin = 4687.49979045296 | epot = 0 | etot = 4687.49979045296
542  ekin = 4687.49979045296 | epot = 0 | etot = 4687.49979045296
543  ekin = 4687.49979045296 | epot = 0 | etot = 4687.49979045296
544  ekin = 4687.49979045296 | epot = 0 | etot = 4687.49979045296
545  ekin = 4687.49979045296 | epot = 0 | etot = 4687.49979045296
546  ekin = 4687.49979045296 | epot = 0 | etot = 4687.49979045296
547  ekin = 4687.49979045296 | epot = 0 | etot = 4687.49979045296
548  ekin = 4687.49979045296 | epot = 0 | etot = 4687.49979045296
549  ekin = 4687.49979045296 | epot = 0 | etot = 4687.49979045296
550  ekin = 4687.49979045296 | epot = 0 | etot = 4687.49979045296
551  ekin = 4687.49979045296 | epot = 0 | etot = 4687.49979045296
552  ekin = 4687.49979045296 | epot = 0 | etot = 4687.49979045296
553  ekin = 4687.49979045296 | epot = 0 | etot = 4687.49979045296
554  ekin = 4687.49979045296 | epot = 0 | etot = 4687.49979045296
555  ekin = 4687.49979045296 | epot = 0 | etot = 4687.49979045296
556  ekin = 4687.49979045296 | epot = 0 | etot = 4687.49979045296
557  ekin = 4687.49979045296 | epot = 0 | etot = 4687.49979045296
558  ekin = 4687.49979045296 | epot = 0 | etot = 4687.49979045296
559  ekin = 4687.49979045296 | epot = 0 | etot = 4687.49979045296
560  ekin = 4687.49979045296 | epot = 0 | etot = 4687.49979045296
561  ekin = 4687.49979045296 | epot = 0 | etot = 4687.49979045296
562  ekin = 4687.49979045296 | epot = 0 | etot = 4687.49979045296
563  ekin = 4687.49979045296 | epot = 0 | etot = 4687.49979045296
564  ekin = 4687.49979045296 | epot = 0 | etot = 4687.49979045296
565  ekin = 4687.49979045296 | epot = 0 | etot = 4687.49979045296
566  ekin = 4687.49979045296 | epot = 0 | etot = 4687.49979045296
567  ekin = 4687.49979045296 | epot = 0 | etot = 4687.49979045296
568  ekin = 4687.49979045296 | epot = 0 | etot = 4687.49979045296
569  ekin = 4687.49979045296 | epot = 0 | etot = 4687.49979045296
570  ekin = 4687.49979045296 | epot = 0 | etot = 4687.49979045296
571  ekin = 4687.49979045296 | epot = 0 | etot = 4687.49979045296
572  ekin = 4687.49979045296 | epot = 0 | etot = 4687.49979045296
573  ekin = 4687.49979045296 | epot = 0 | etot = 4687.49979045296
574  ekin = 4687.49979045296 | epot = 0 | etot = 4687.49979045296
575  ekin = 4687.49979045296 | epot = 0 | etot = 4687.49979045296
576  ekin = 4687.49979045296 | epot = 0 | etot = 4687.49979045296
577  ekin = 4687.49979045296 | epot = 0 | etot = 4687.49979045296
578  ekin = 4687.49979045296 | epot = 0 | etot = 4687.49979045296
579  ekin = 4687.49979045296 | epot = 0 | etot = 4687.49979045296
580  ekin = 4687.49979045296 | epot = 0 | etot = 4687.49979045296
581  ekin = 4687.49979045296 | epot = 0 | etot = 4687.49979045296
582  ekin = 4687.49979045296 | epot = 0 | etot = 4687.49979045296
583  ekin = 4687.49979045296 | epot = 0 | etot = 4687.49979045296
584  ekin = 4687.49979045296 | epot = 0 | etot = 4687.49979045296
585  ekin = 4687.49979045296 | epot = 0 | etot = 4687.49979045296
586  ekin = 4687.49979045296 | epot = 0 | etot = 4687.49979045296
587  ekin = 4687.49979045296 | epot = 0 | etot = 4687.49979045296
588  ekin = 4687.49979045296 | epot = 0 | etot = 4687.49979045296
589  ekin = 4687.49979045296 | epot = 0 | etot = 4687.49979045296
590  ekin = 4687.49979045296 | epot = 0 | etot = 4687.49979045296
591  ekin = 4687.49979045296 | epot = 0 | etot = 4687.49979045296
592  ekin = 4687.49979045296 | epot = 0 | etot = 4687.49979045296
593  ekin = 4687.49979045296 | epot = 0 | etot = 4687.49979045296
594  ekin = 4687.49979045296 | epot = 0 | etot = 4687.49979045296
595  ekin = 4687.49979045296 | epot = 0 | etot = 4687.49979045296
596  ekin = 4687.49979045296 | epot = 0 | etot = 4687.49979045296
597  ekin = 4687.49979045296 | epot = 0 | etot = 4687.49979045296
598  ekin = 4687.49979045296 | epot = 0 | etot = 4687.49979045296
599  ekin = 4687.49979045296 | epot = 0 | etot = 4687.49979045296
600  ekin = 4687.49979045296 | epot = 0 | etot = 4687.49979045296
601  ekin = 4687.49979045296 | epot = 0 | etot = 4687.49979045296
602  ekin = 4687.49979045296 | epot = 0 | etot = 4687.49979045296
603  ekin = 4687.49979045296 | epot = 0 | etot = 4687.49979045296
604  ekin = 4687.49979045296 | epot = 0 | etot = 4687.49979045296
605  ekin = 4687.49979045296 | epot = 0 | etot = 4687.49979045296
606  ekin = 4687.49979045296 | epot = 0 | etot = 4687.49979045296
607  ekin = 4687.49979045296 | epot = 0 | etot = 4687.49979045296
608  ekin = 4687.49979045296 | epot = 0 | etot = 4687.49979045296
609  ekin = 4687.49979045296 | epot = 0 | etot = 4687.49979045296
610  ekin = 4687.49979045296 | epot = 0 | etot = 4687.49979045296
611  ekin = 4687.49979045296 | epot = 0 | etot = 4687.49979045296
612  ekin = 4687.49979045296 | epot = 0 | etot = 4687.49979045296
613  ekin = 4687.49979045296 | epot = 0 | etot = 4687.49979045296
614  ekin = 4687.49979045296 | epot = 0 | etot = 4687.49979045296
615  ekin = 4687.49979045296 | epot = 0 | etot = 4687.49979045296
616  ekin = 4687.49979045296 | epot = 0 | etot = 4687.49979045296
617  ekin = 4687.49979045296 | epot = 0 | etot = 4687.49979045296
618  ekin = 4687.49979045296 | epot = 0 | etot = 4687.49979045296
619  ekin = 4687.49979045296 | epot = 0 | etot = 4687.49979045296
620  ekin = 4687.49979045296 | epot = 0 | etot = 4687.49979045296
621  ekin = 4687.49979045296 | epot = 0 | etot = 4687.49979045296
622  ekin = 4687.49979045296 | epot = 0 | etot = 4687.49979045296
623  ekin = 4687.49979045296 | epot = 0 | etot = 4687.49979045296
624  ekin = 4687.49979045296 | epot = 0 | etot = 4687.49979045296
625  ekin = 4687.49979045296 | epot = 0 | etot = 4687.49979045296
626  ekin = 4687.49979045296 | epot = 0 | etot = 4687.49979045296
627  ekin = 4687.49979045296 | epot = 0 | etot = 4687.49979045296
628  ekin = 4687.49979045296 | epot = 0 | etot = 4687.49979045296
629  ekin = 4687.49979045296 | epot = 0 | etot = 4687.49979045296
630  ekin = 4687.49979045296 | epot = 0 | etot = 4687.49979045296
631  ekin = 4687.49979045296 | epot = 0 | etot = 4687.49979045296
632  ekin = 4687.49979045296 | epot = 0 | etot = 4687.49979045296
633  ekin = 4687.49979045296 | epot = 0 | etot = 4687.49979045296
634  ekin = 4687.49979045296 | epot = 0 | etot = 4687.49979045296
635  ekin = 4687.49979045296 | epot = 0 | etot = 4687.49979045296
636  ekin = 4687.49979045296 | epot = 0 | etot = 4687.49979045296
637  ekin = 4687.49979045296 | epot = 0 | etot = 4687.49979045296
638  ekin = 4687.49979045296 | epot = 0 | etot = 4687.49979045296
639  ekin = 4687.49979045296 | epot = 0 | etot = 4687.49979045296
640  ekin = 4687.49979045296 | epot = 0 | etot = 4687.49979045296
641  ekin = 4687.49979045296 | epot = 0 | etot = 4687.49979045296
642  ekin = 4687.49979045296 | epot = 0 | etot = 4687.49979045296
643  ekin = 4687.49979045296 | epot = 0 | etot = 4687.49979045296
644  ekin = 4687.49979045296 | epot = 0 | etot = 4687.49979045296
645  ekin = 4687.49979045296 | epot = 0 | etot = 4687.49979045296
646  ekin = 4687.49979045296 | epot = 0 | etot = 4687.49979045296
647  ekin = 4687.49979045296 | epot = 0 | etot = 4687.49979045296
648  ekin = 4687.49979045296 | epot = 0 | etot = 4687.49979045296
649  ekin = 4687.49979045296 | epot = 0 | etot = 4687.49979045296
650  ekin = 4687.49979045296 | epot = 0 | etot = 4687.49979045296
651  ekin = 4687.49979045296 | epot = 0 | etot = 4687.49979045296
652  ekin = 4687.49979045296 | epot = 0 | etot = 4687.49979045296
653  ekin = 4687.49979045296 | epot = 0 | etot = 4687.49979045296
654  ekin = 4687.49979045296 | epot = 0 | etot = 4687.49979045296
655  ekin = 4687.49979045296 | epot = 0 | etot = 4687.49979045296
656  ekin = 4687.49979045296 | epot = 0 | etot = 4687.49979045296
657  ekin = 4687.49979045296 | epot = 0 | etot = 4687.49979045296
658  ekin = 4687.49979045296 | epot = 0 | etot = 4687.49979045296
659  ekin = 4687.49979045296 | epot = 0 | etot = 4687.49979045296
660  ekin = 4687.49979045296 | epot = 0 | etot = 4687.49979045296
661  ekin = 4687.49979045296 | epot = 0 | etot = 4687.49979045296
662  ekin = 4687.49979045296 | epot = 0 | etot = 4687.49979045296
663  ekin = 4687.49979045296 | epot = 0 | etot = 4687.49979045296
664  ekin = 4687.49979045296 | epot = 0 | etot = 4687.49979045296
665  ekin = 4687.49979045296 | epot = 0 | etot = 4687.49979045296
666  ekin = 4687.49979045296 | epot = 0 | etot = 4687.49979045296
667  ekin = 4687.49979045296 | epot = 0 | etot = 4687.49979045296
668  ekin = 4687.49979045296 | epot = 0 | etot = 4687.49979045296
669  ekin = 4687.49979045296 | epot = 0 | etot = 4687.49979045296
670  ekin = 4687.49979045296 | epot = 0 | etot = 4687.49979045296
671  ekin = 4687.49979045296 | epot = 0 | etot = 4687.49979045296
672  ekin = 4687.49979045296 | epot = 0 | etot = 4687.49979045296
673  ekin = 4687.49979045296 | epot = 0 | etot = 4687.49979045296
674  ekin = 4687.49979045296 | epot = 0 | etot = 4687.49979045296
675  ekin = 4687.49979045296 | epot = 0 | etot = 4687.49979045296
676  ekin = 4687.49979045296 | epot = 0 | etot = 4687.49979045296
677  ekin = 4687.49979045296 | epot = 0 | etot = 4687.49979045296
678  ekin = 4687.49979045296 | epot = 0 | etot = 4687.49979045296
679  ekin = 4687.49979045296 | epot = 0 | etot = 4687.49979045296
680  ekin = 4687.49979045296 | epot = 0 | etot = 4687.49979045296
681  ekin = 4687.49979045296 | epot = 0 | etot = 4687.49979045296
682  ekin = 4687.49979045296 | epot = 0 | etot = 4687.49979045296
683  ekin = 4687.49979045296 | epot = 0 | etot = 4687.49979045296
684  ekin = 4687.49979045296 | epot = 0 | etot = 4687.49979045296
685  ekin = 4687.49979045296 | epot = 0 | etot = 4687.49979045296
686  ekin = 4687.49979045296 | epot = 0 | etot = 4687.49979045296
687  ekin = 4687.49979045296 | epot = 0 | etot = 4687.49979045296
688  ekin = 4687.49979045296 | epot = 0 | etot = 4687.49979045296
689  ekin = 4687.49979045296 | epot = 0 | etot = 4687.49979045296
690  ekin = 4687.49979045296 | epot = 0 | etot = 4687.49979045296
691  ekin = 4687.49979045296 | epot = 0 | etot = 4687.49979045296
692  ekin = 4687.49979045296 | epot = 0 | etot = 4687.49979045296
693  ekin = 4687.49979045296 | epot = 0 | etot = 4687.49979045296
694  ekin = 4687.49979045296 | epot = 0 | etot = 4687.49979045296
695  ekin = 4687.49979045296 | epot = 0 | etot = 4687.49979045296
696  ekin = 4687.49979045296 | epot = 0 | etot = 4687.49979045296
697  ekin = 4687.49979045296 | epot = 0 | etot = 4687.49979045296
698  ekin = 4687.49979045296 | epot = 0 | etot = 4687.49979045296
699  ekin = 4687.49979045296 | epot = 0 | etot = 4687.49979045296
700  ekin = 4687.49979045296 | epot = 0 | etot = 4687.49979045296
701  ekin = 4687.49979045296 | epot = 0 | etot = 4687.49979045296
702  ekin = 4687.49979045296 | epot = 0 | etot = 4687.49979045296
703  ekin = 4687.49979045296 | epot = 0 | etot = 4687.49979045296
704  ekin = 4687.49979045296 | epot = 0 | etot = 4687.49979045296
705  ekin = 4687.49979045296 | epot = 0 | etot = 4687.49979045296
706  ekin = 4687.49979045296 | epot = 0 | etot = 4687.49979045296
707  ekin = 4687.49979045296 | epot = 0 | etot = 4687.49979045296
708  ekin = 4687.49979045296 | epot = 0 | etot = 4687.49979045296
709  ekin = 4687.49979045296 | epot = 0 | etot = 4687.49979045296
710  ekin = 4687.49979045296 | epot = 0 | etot = 4687.49979045296
711  ekin = 4687.49979045296 | epot = 0 | etot = 4687.49979045296
712  ekin = 4687.49979045296 | epot = 0 | etot = 4687.49979045296
713  ekin = 4687.49979045296 | epot = 0 | etot = 4687.49979045296
714  ekin = 4687.49979045296 | epot = 0 | etot = 4687.49979045296
715  ekin = 4687.49979045296 | epot = 0 | etot = 4687.49979045296
716  ekin = 4687.49979045296 | epot = 0 | etot = 4687.49979045296
717  ekin = 4687.49979045296 | epot = 0 | etot = 4687.49979045296
718  ekin = 4687.49979045296 | epot = 0 | etot = 4687.49979045296
719  ekin = 4687.49979045296 | epot = 0 | etot = 4687.49979045296
720  ekin = 4687.49979045296 | epot = 0 | etot = 4687.49979045296
721  ekin = 4687.49979045296 | epot = 0 | etot = 4687.49979045296
722  ekin = 4687.49979045296 | epot = 0 | etot = 4687.49979045296
723  ekin = 4687.49979045296 | epot = 0 | etot = 4687.49979045296
724  ekin = 4687.49979045296 | epot = 0 | etot = 4687.49979045296
725  ekin = 4687.49979045296 | epot = 0 | etot = 4687.49979045296
726  ekin = 4687.49979045296 | epot = 0 | etot = 4687.49979045296
727  ekin = 4687.49979045296 | epot = 0 | etot = 4687.49979045296
728  ekin = 4687.49979045296 | epot = 0 | etot = 4687.49979045296
729  ekin = 4687.49979045296 | epot = 0 | etot = 4687.49979045296
730  ekin = 4687.49979045296 | epot = 0 | etot = 4687.49979045296
731  ekin = 4687.49979045296 | epot = 0 | etot = 4687.49979045296
732  ekin = 4687.49979045296 | epot = 0 | etot = 4687.49979045296
733  ekin = 4687.49979045296 | epot = 0 | etot = 4687.49979045296
734  ekin = 4687.49979045296 | epot = 0 | etot = 4687.49979045296
735  ekin = 4687.49979045296 | epot = 0 | etot = 4687.49979045296
736  ekin = 4687.49979045296 | epot = 0 | etot = 4687.49979045296
737  ekin = 4687.49979045296 | epot = 0 | etot = 4687.49979045296
738  ekin = 4687.49979045296 | epot = 0 | etot = 4687.49979045296
739  ekin = 4687.49979045296 | epot = 0 | etot = 4687.49979045296
740  ekin = 4687.49979045296 | epot = 0 | etot = 4687.49979045296
741  ekin = 4687.49979045296 | epot = 0 | etot = 4687.49979045296
742  ekin = 4687.49979045296 | epot = 0 | etot = 4687.49979045296
743  ekin = 4687.49979045296 | epot = 0 | etot = 4687.49979045296
744  ekin = 4687.49979045296 | epot = 0 | etot = 4687.49979045296
745  ekin = 4687.49979045296 | epot = 0 | etot = 4687.49979045296
746  ekin = 4687.49979045296 | epot = 0 | etot = 4687.49979045296
747  ekin = 4687.49979045296 | epot = 0 | etot = 4687.49979045296
748  ekin = 4687.49979045296 | epot = 0 | etot = 4687.49979045296
749  ekin = 4687.49979045296 | epot = 0 | etot = 4687.49979045296
750  ekin = 4687.49979045296 | epot = 0 | etot = 4687.49979045296
751  ekin = 4687.49979045296 | epot = 0 | etot = 4687.49979045296
752  ekin = 4687.49979045296 | epot = 0 | etot = 4687.49979045296
753  ekin = 4687.49979045296 | epot = 0 | etot = 4687.49979045296
754  ekin = 4687.49979045296 | epot = 0 | etot = 4687.49979045296
755  ekin = 4687.49979045296 | epot = 0 | etot = 4687.49979045296
756  ekin = 4687.49979045296 | epot = 0 | etot = 4687.49979045296
757  ekin = 4687.49979045296 | epot = 0 | etot = 4687.49979045296
758  ekin = 4687.49979045296 | epot = 0 | etot = 4687.49979045296
759  ekin = 4687.49979045296 | epot = 0 | etot = 4687.49979045296
760  ekin = 4687.49979045296 | epot = 0 | etot = 4687.49979045296
761  ekin = 4687.49979045296 | epot = 0 | etot = 4687.49979045296
762  ekin = 4687.49979045296 | epot = 0 | etot = 4687.49979045296
763  ekin = 4687.49979045296 | epot = 0 | etot = 4687.49979045296
764  ekin = 4687.49979045296 | epot = 0 | etot = 4687.49979045296
765  ekin = 4687.49979045296 | epot = 0 | etot = 4687.49979045296
766  ekin = 4687.49979045296 | epot = 0 | etot = 4687.49979045296
767  ekin = 4687.49979045296 | epot = 0 | etot = 4687.49979045296
768  ekin = 4687.49979045296 | epot = 0 | etot = 4687.49979045296
769  ekin = 4687.49979045296 | epot = 0 | etot = 4687.49979045296
770  ekin = 4687.49979045296 | epot = 0 | etot = 4687.49979045296
771  ekin = 4687.49979045296 | epot = 0 | etot = 4687.49979045296
772  ekin = 4687.49979045296 | epot = 0 | etot = 4687.49979045296
773  ekin = 4687.49979045296 | epot = 0 | etot = 4687.49979045296
774  ekin = 4687.49979045296 | epot = 0 | etot = 4687.49979045296
775  ekin = 4687.49979045296 | epot = 0 | etot = 4687.49979045296
776  ekin = 4687.49979045296 | epot = 0 | etot = 4687.49979045296
777  ekin = 4687.49979045296 | epot = 0 | etot = 4687.49979045296
778  ekin = 4687.49979045296 | epot = 0 | etot = 4687.49979045296
779  ekin = 4687.49979045296 | epot = 0 | etot = 4687.49979045296
780  ekin = 4687.49979045296 | epot = 0 | etot = 4687.49979045296
781  ekin = 4687.49979045296 | epot = 0 | etot = 4687.49979045296
782  ekin = 4687.49979045296 | epot = 0 | etot = 4687.49979045296
783  ekin = 4687.49979045296 | epot = 0 | etot = 4687.49979045296
784  ekin = 4687.49979045296 | epot = 0 | etot = 4687.49979045296
785  ekin = 4687.49979045296 | epot = 0 | etot = 4687.49979045296
786  ekin = 4687.49979045296 | epot = 0 | etot = 4687.49979045296
787  ekin = 4687.49979045296 | epot = 0 | etot = 4687.49979045296
788  ekin = 4687.49979045296 | epot = 0 | etot = 4687.49979045296
789  ekin = 4687.49979045296 | epot = 0 | etot = 4687.49979045296
790  ekin = 4687.49979045296 | epot = 0 | etot = 4687.49979045296
791  ekin = 4687.49979045296 | epot = 0 | etot = 4687.49979045296
792  ekin = 4687.49979045296 | epot = 0 | etot = 4687.49979045296
793  ekin = 4687.49979045296 | epot = 0 | etot = 4687.49979045296
794  ekin = 4687.49979045296 | epot = 0 | etot = 4687.49979045296
795  ekin = 4687.49979045296 | epot = 0 | etot = 4687.49979045296
796  ekin = 4687.49979045296 | epot = 0 | etot = 4687.49979045296
797  ekin = 4687.49979045296 | epot = 0 | etot = 4687.49979045296
798  ekin = 4687.49979045296 | epot = 0 | etot = 4687.49979045296
799  ekin = 4687.49979045296 | epot = 0 | etot = 4687.49979045296
800  ekin = 4687.49979045296 | epot = 0 | etot = 4687.49979045296
801  ekin = 4687.49979045296 | epot = 0 | etot = 4687.49979045296
802  ekin = 4687.49979045296 | epot = 0 | etot = 4687.49979045296
803  ekin = 4687.49979045296 | epot = 0 | etot = 4687.49979045296
804  ekin = 4687.49979045296 | epot = 0 | etot = 4687.49979045296
805  ekin = 4687.49979045296 | epot = 0 | etot = 4687.49979045296
806  ekin = 4687.49979045296 | epot = 0 | etot = 4687.49979045296
807  ekin = 4687.49979045296 | epot = 0 | etot = 4687.49979045296
808  ekin = 4687.49979045296 | epot = 0 | etot = 4687.49979045296
809  ekin = 4687.49979045296 | epot = 0 | etot = 4687.49979045296
810  ekin = 4687.49979045296 | epot = 0 | etot = 4687.49979045296
811  ekin = 4687.49979045296 | epot = 0 | etot = 4687.49979045296
812  ekin = 4687.49979045296 | epot = 0 | etot = 4687.49979045296
813  ekin = 4687.49979045296 | epot = 0 | etot = 4687.49979045296
814  ekin = 4687.49979045296 | epot = 0 | etot = 4687.49979045296
815  ekin = 4687.49979045296 | epot = 0 | etot = 4687.49979045296
816  ekin = 4687.49979045296 | epot = 0 | etot = 4687.49979045296
817  ekin = 4687.49979045296 | epot = 0 | etot = 4687.49979045296
818  ekin = 4687.49979045296 | epot = 0 | etot = 4687.49979045296
819  ekin = 4687.49979045296 | epot = 0 | etot = 4687.49979045296
820  ekin = 4687.49979045296 | epot = 0 | etot = 4687.49979045296
821  ekin = 4687.49979045296 | epot = 0 | etot = 4687.49979045296
822  ekin = 4687.49979045296 | epot = 0 | etot = 4687.49979045296
823  ekin = 4687.49979045296 | epot = 0 | etot = 4687.49979045296
824  ekin = 4687.49979045296 | epot = 0 | etot = 4687.49979045296
825  ekin = 4687.49979045296 | epot = 0 | etot = 4687.49979045296
826  ekin = 4687.49979045296 | epot = 0 | etot = 4687.49979045296
827  ekin = 4687.49979045296 | epot = 0 | etot = 4687.49979045296
828  ekin = 4687.49979045296 | epot = 0 | etot = 4687.49979045296
829  ekin = 4687.49979045296 | epot = 0 | etot = 4687.49979045296
830  ekin = 4687.49979045296 | epot = 0 | etot = 4687.49979045296
831  ekin = 4687.49979045296 | epot = 0 | etot = 4687.49979045296
832  ekin = 4687.49979045296 | epot = 0 | etot = 4687.49979045296
833  ekin = 4687.49979045296 | epot = 0 | etot = 4687.49979045296
834  ekin = 4687.49979045296 | epot = 0 | etot = 4687.49979045296
835  ekin = 4687.49979045296 | epot = 0 | etot = 4687.49979045296
836  ekin = 4687.49979045296 | epot = 0 | etot = 4687.49979045296
837  ekin = 4687.49979045296 | epot = 0 | etot = 4687.49979045296
838  ekin = 4687.49979045296 | epot = 0 | etot = 4687.49979045296
839  ekin = 4687.49979045296 | epot = 0 | etot = 4687.49979045296
840  ekin = 4687.49979045296 | epot = 0 | etot = 4687.49979045296
841  ekin = 4687.49979045296 | epot = 0 | etot = 4687.49979045296
842  ekin = 4687.49979045296 | epot = 0 | etot = 4687.49979045296
843  ekin = 4687.49979045296 | epot = 0 | etot = 4687.49979045296
844  ekin = 4687.49979045296 | epot = 0 | etot = 4687.49979045296
845  ekin = 4687.49979045296 | epot = 0 | etot = 4687.49979045296
846  ekin = 4687.49979045296 | epot = 0 | etot = 4687.49979045296
847  ekin = 4687.49979045296 | epot = 0 | etot = 4687.49979045296
848  ekin = 4687.49979045296 | epot = 0 | etot = 4687.49979045296
849  ekin = 4687.49979045296 | epot = 0 | etot = 4687.49979045296
850  ekin = 4687.49979045296 | epot = 0 | etot = 4687.49979045296
851  ekin = 4687.49979045296 | epot = 0 | etot = 4687.49979045296
852  ekin = 4687.49979045296 | epot = 0 | etot = 4687.49979045296
853  ekin = 4687.49979045296 | epot = 0 | etot = 4687.49979045296
854  ekin = 4687.49979045296 | epot = 0 | etot = 4687.49979045296
855  ekin = 4687.49979045296 | epot = 0 | etot = 4687.49979045296
856  ekin = 4687.49979045296 | epot = 0 | etot = 4687.49979045296
857  ekin = 4687.49979045296 | epot = 0 | etot = 4687.49979045296
858  ekin = 4687.49979045296 | epot = 0 | etot = 4687.49979045296
859  ekin = 4687.49979045296 | epot = 0 | etot = 4687.49979045296
860  ekin = 4687.49979045296 | epot = 0 | etot = 4687.49979045296
861  ekin = 4687.49979045296 | epot = 0 | etot = 4687.49979045296
862  ekin = 4687.49979045296 | epot = 0 | etot = 4687.49979045296
863  ekin = 4687.49979045296 | epot = 0 | etot = 4687.49979045296
864  ekin = 4687.49979045296 | epot = 0 | etot = 4687.49979045296
865  ekin = 4687.49979045296 | epot = 0 | etot = 4687.49979045296
866  ekin = 4687.49979045296 | epot = 0 | etot = 4687.49979045296
867  ekin = 4687.49979045296 | epot = 0 | etot = 4687.49979045296
868  ekin = 4687.49979045296 | epot = 0 | etot = 4687.49979045296
869  ekin = 4687.49979045296 | epot = 0 | etot = 4687.49979045296
870  ekin = 4687.49979045296 | epot = 0 | etot = 4687.49979045296
871  ekin = 4687.49979045296 | epot = 0 | etot = 4687.49979045296
872  ekin = 4687.49979045296 | epot = 0 | etot = 4687.49979045296
873  ekin = 4687.49979045296 | epot = 0 | etot = 4687.49979045296
874  ekin = 4687.49979045296 | epot = 0 | etot = 4687.49979045296
875  ekin = 4687.49979045296 | epot = 0 | etot = 4687.49979045296
876  ekin = 4687.49979045296 | epot = 0 | etot = 4687.49979045296
877  ekin = 4687.49979045296 | epot = 0 | etot = 4687.49979045296
878  ekin = 4687.49979045296 | epot = 0 | etot = 4687.49979045296
879  ekin = 4687.49979045296 | epot = 0 | etot = 4687.49979045296
880  ekin = 4687.49979045296 | epot = 0 | etot = 4687.49979045296
881  ekin = 4687.49979045296 | epot = 0 | etot = 4687.49979045296
882  ekin = 4687.49979045296 | epot = 0 | etot = 4687.49979045296
883  ekin = 4687.49979045296 | epot = 0 | etot = 4687.49979045296
884  ekin = 4687.49979045296 | epot = 0 | etot = 4687.49979045296
885  ekin = 4687.49979045296 | epot = 0 | etot = 4687.49979045296
886  ekin = 4687.49979045296 | epot = 0 | etot = 4687.49979045296
887  ekin = 4687.49979045296 | epot = 0 | etot = 4687.49979045296
888  ekin = 4687.49979045296 | epot = 0 | etot = 4687.49979045296
889  ekin = 4687.49979045296 | epot = 0 | etot = 4687.49979045296
890  ekin = 4687.49979045296 | epot = 0 | etot = 4687.49979045296
891  ekin = 4687.49979045296 | epot = 0 | etot = 4687.49979045296
892  ekin = 4687.49979045296 | epot = 0 | etot = 4687.49979045296
893  ekin = 4687.49979045296 | epot = 0 | etot = 4687.49979045296
894  ekin = 4687.49979045296 | epot = 0 | etot = 4687.49979045296
895  ekin = 4687.49979045296 | epot = 0 | etot = 4687.49979045296
896  ekin = 4687.49979045296 | epot = 0 | etot = 4687.49979045296
897  ekin = 4687.49979045296 | epot = 0 | etot = 4687.49979045296
898  ekin = 4687.49979045296 | epot = 0 | etot = 4687.49979045296
899  ekin = 4687.49979045296 | epot = 0 | etot = 4687.49979045296
900  ekin = 4687.49979045296 | epot = 0 | etot = 4687.49979045296
901  ekin = 4687.49979045296 | epot = 0 | etot = 4687.49979045296
902  ekin = 4687.49979045296 | epot = 0 | etot = 4687.49979045296
903  ekin = 4687.49979045296 | epot = 0 | etot = 4687.49979045296
904  ekin = 4687.49979045296 | epot = 0 | etot = 4687.49979045296
905  ekin = 4687.49979045296 | epot = 0 | etot = 4687.49979045296
906  ekin = 4687.49979045296 | epot = 0 | etot = 4687.49979045296
907  ekin = 4687.49979045296 | epot = 0 | etot = 4687.49979045296
908  ekin = 4687.49979045296 | epot = 0 | etot = 4687.49979045296
909  ekin = 4687.49979045296 | epot = 0 | etot = 4687.49979045296
910  ekin = 4687.49979045296 | epot = 0 | etot = 4687.49979045296
911  ekin = 4687.49979045296 | epot = 0 | etot = 4687.49979045296
912  ekin = 4687.49979045296 | epot = 0 | etot = 4687.49979045296
913  ekin = 4687.49979045296 | epot = 0 | etot = 4687.49979045296
914  ekin = 4687.49979045296 | epot = 0 | etot = 4687.49979045296
915  ekin = 4687.49979045296 | epot = 0 | etot = 4687.49979045296
916  ekin = 4687.49979045296 | epot = 0 | etot = 4687.49979045296
917  ekin = 4687.49979045296 | epot = 0 | etot = 4687.49979045296
918  ekin = 4687.49979045296 | epot = 0 | etot = 4687.49979045296
919  ekin = 4687.49979045296 | epot = 0 | etot = 4687.49979045296
920  ekin = 4687.49979045296 | epot = 0 | etot = 4687.49979045296
921  ekin = 4687.49979045296 | epot = 0 | etot = 4687.49979045296
922  ekin = 4687.49979045296 | epot = 0 | etot = 4687.49979045296
923  ekin = 4687.49979045296 | epot = 0 | etot = 4687.49979045296
924  ekin = 4687.49979045296 | epot = 0 | etot = 4687.49979045296
925  ekin = 4687.49979045296 | epot = 0 | etot = 4687.49979045296
926  ekin = 4687.49979045296 | epot = 0 | etot = 4687.49979045296
927  ekin = 4687.49979045296 | epot = 0 | etot = 4687.49979045296
928  ekin = 4687.49979045296 | epot = 0 | etot = 4687.49979045296
929  ekin = 4687.49979045296 | epot = 0 | etot = 4687.49979045296
930  ekin = 4687.49979045296 | epot = 0 | etot = 4687.49979045296
931  ekin = 4687.49979045296 | epot = 0 | etot = 4687.49979045296
932  ekin = 4687.49979045296 | epot = 0 | etot = 4687.49979045296
933  ekin = 4687.49979045296 | epot = 0 | etot = 4687.49979045296
934  ekin = 4687.49979045296 | epot = 0 | etot = 4687.49979045296
935  ekin = 4687.49979045296 | epot = 0 | etot = 4687.49979045296
936  ekin = 4687.49979045296 | epot = 0 | etot = 4687.49979045296
937  ekin = 4687.49979045296 | epot = 0 | etot = 4687.49979045296
938  ekin = 4687.49979045296 | epot = 0 | etot = 4687.49979045296
939  ekin = 4687.49979045296 | epot = 0 | etot = 4687.49979045296
940  ekin = 4687.49979045296 | epot = 0 | etot = 4687.49979045296
941  ekin = 4687.49979045296 | epot = 0 | etot = 4687.49979045296
942  ekin = 4687.49979045296 | epot = 0 | etot = 4687.49979045296
943  ekin = 4687.49979045296 | epot = 0 | etot = 4687.49979045296
944  ekin = 4687.49979045296 | epot = 0 | etot = 4687.49979045296
945  ekin = 4687.49979045296 | epot = 0 | etot = 4687.49979045296
946  ekin = 4687.49979045296 | epot = 0 | etot = 4687.49979045296
947  ekin = 4687.49979045296 | epot = 0 | etot = 4687.49979045296
948  ekin = 4687.49979045296 | epot = 0 | etot = 4687.49979045296
949  ekin = 4687.49979045296 | epot = 0 | etot = 4687.49979045296
950  ekin = 4687.49979045296 | epot = 0 | etot = 4687.49979045296
951  ekin = 4687.49979045296 | epot = 0 | etot = 4687.49979045296
952  ekin = 4687.49979045296 | epot = 0 | etot = 4687.49979045296
953  ekin = 4687.49979045296 | epot = 0 | etot = 4687.49979045296
954  ekin = 4687.49979045296 | epot = 0 | etot = 4687.49979045296
955  ekin = 4687.49979045296 | epot = 0 | etot = 4687.49979045296
956  ekin = 4687.49979045296 | epot = 0 | etot = 4687.49979045296
957  ekin = 4687.49979045296 | epot = 0 | etot = 4687.49979045296
958  ekin = 4687.49979045296 | epot = 0 | etot = 4687.49979045296
959  ekin = 4687.49979045296 | epot = 0 | etot = 4687.49979045296
960  ekin = 4687.49979045296 | epot = 0 | etot = 4687.49979045296
961  ekin = 4687.49979045296 | epot = 0 | etot = 4687.49979045296
962  ekin = 4687.49979045296 | epot = 0 | etot = 4687.49979045296
963  ekin = 4687.49979045296 | epot = 0 | etot = 4687.49979045296
964  ekin = 4687.49979045296 | epot = 0 | etot = 4687.49979045296
965  ekin = 4687.49979045296 | epot = 0 | etot = 4687.49979045296
966  ekin = 4687.49979045296 | epot = 0 | etot = 4687.49979045296
967  ekin = 4687.49979045296 | epot = 0 | etot = 4687.49979045296
968  ekin = 4687.49979045296 | epot = 0 | etot = 4687.49979045296
969  ekin = 4687.49979045296 | epot = 0 | etot = 4687.49979045296
970  ekin = 4687.49979045296 | epot = 0 | etot = 4687.49979045296
971  ekin = 4687.49979045296 | epot = 0 | etot = 4687.49979045296
972  ekin = 4687.49979045296 | epot = 0 | etot = 4687.49979045296
973  ekin = 4687.49979045296 | epot = 0 | etot = 4687.49979045296
974  ekin = 4687.49979045296 | epot = 0 | etot = 4687.49979045296
975  ekin = 4687.49979045296 | epot = 0 | etot = 4687.49979045296
976  ekin = 4687.49979045296 | epot = 0 | etot = 4687.49979045296
977  ekin = 4687.49979045296 | epot = 0 | etot = 4687.49979045296
978  ekin = 4687.49979045296 | epot = 0 | etot = 4687.49979045296
979  ekin = 4687.49979045296 | epot = 0 | etot = 4687.49979045296
980  ekin = 4687.49979045296 | epot = 0 | etot = 4687.49979045296
981  ekin = 4687.49979045296 | epot = 0 | etot = 4687.49979045296
982  ekin = 4687.49979045296 | epot = 0 | etot = 4687.49979045296
983  ekin = 4687.49979045296 | epot = 0 | etot = 4687.49979045296
984  ekin = 4687.49979045296 | epot = 0 | etot = 4687.49979045296
985  ekin = 4687.49979045296 | epot = 0 | etot = 4687.49979045296
986  ekin = 4687.49979045296 | epot = 0 | etot = 4687.49979045296
987  ekin = 4687.49979045296 | epot = 0 | etot = 4687.49979045296
988  ekin = 4687.49979045296 | epot = 0 | etot = 4687.49979045296
989  ekin = 4687.49979045296 | epot = 0 | etot = 4687.49979045296
990  ekin = 4687.49979045296 | epot = 0 | etot = 4687.49979045296
991  ekin = 4687.49979045296 | epot = 0 | etot = 4687.49979045296
992  ekin = 4687.49979045296 | epot = 0 | etot = 4687.49979045296
993  ekin = 4687.49979045296 | epot = 0 | etot = 4687.49979045296
994  ekin = 4687.49979045296 | epot = 0 | etot = 4687.49979045296
995  ekin = 4687.49979045296 | epot = 0 | etot = 4687.49979045296
996  ekin = 4687.49979045296 | epot = 0 | etot = 4687.49979045296
997  ekin = 4687.49979045296 | epot = 0 | etot = 4687.49979045296
998  ekin = 4687.49979045296 | epot = 0 | etot = 4687.49979045296
999  ekin = 4687.49979045296 | epot = 0 | etot = 4687.49979045296
1000  ekin = 4687.49979045296 | epot = 0 | etot = 4687.49979045296
1001  ekin = 4687.49979045296 | epot = 0 | etot = 4687.49979045296
1002  ekin = 4687.49979045296 | epot = 0 | etot = 4687.49979045296
1003  ekin = 4687.49979045296 | epot = 0 | etot = 4687.49979045296
1004  ekin = 4687.49979045296 | epot = 0 | etot = 4687.49979045296
1005  ekin = 4687.49979045296 | epot = 0 | etot = 4687.49979045296
1006  ekin = 4687.49979045296 | epot = 0 | etot = 4687.49979045296
1007  ekin = 4687.49979045296 | epot = 0 | etot = 4687.49979045296
1008  ekin = 4687.49979045296 | epot = 0 | etot = 4687.49979045296
1009  ekin = 4687.49979045296 | epot = 0 | etot = 4687.49979045296
1010  ekin = 4687.49979045296 | epot = 0 | etot = 4687.49979045296
1011  ekin = 4687.49979045296 | epot = 0 | etot = 4687.49979045296
1012  ekin = 4687.49979045296 | epot = 0 | etot = 4687.49979045296
1013  ekin = 4687.49979045296 | epot = 0 | etot = 4687.49979045296
1014  ekin = 4687.49979045296 | epot = 0 | etot = 4687.49979045296
1015  ekin = 4687.49979045296 | epot = 0 | etot = 4687.49979045296
1016  ekin = 4687.49979045296 | epot = 0 | etot = 4687.49979045296
1017  ekin = 4687.49979045296 | epot = 0 | etot = 4687.49979045296
1018  ekin = 4687.49979045296 | epot = 0 | etot = 4687.49979045296
1019  ekin = 4687.49979045296 | epot = 0 | etot = 4687.49979045296
1020  ekin = 4687.49979045296 | epot = 0 | etot = 4687.49979045296
1021  ekin = 4687.49979045296 | epot = 0 | etot = 4687.49979045296
1022  ekin = 4687.49979045296 | epot = 0 | etot = 4687.49979045296
1023  ekin = 4687.49979045296 | epot = 0 | etot = 4687.49979045296
1024  ekin = 4687.49979045296 | epot = 0 | etot = 4687.49979045296
1025  ekin = 4687.49979045296 | epot = 0 | etot = 4687.49979045296
1026  ekin = 4687.49979045296 | epot = 0 | etot = 4687.49979045296
1027  ekin = 4687.49979045296 | epot = 0 | etot = 4687.49979045296
1028  ekin = 4687.49979045296 | epot = 0 | etot = 4687.49979045296
1029  ekin = 4687.49979045296 | epot = 0 | etot = 4687.49979045296
1030  ekin = 4687.49979045296 | epot = 0 | etot = 4687.49979045296
1031  ekin = 4687.49979045296 | epot = 0 | etot = 4687.49979045296
1032  ekin = 4687.49979045296 | epot = 0 | etot = 4687.49979045296
1033  ekin = 4687.49979045296 | epot = 0 | etot = 4687.49979045296
1034  ekin = 4687.49979045296 | epot = 0 | etot = 4687.49979045296
1035  ekin = 4687.49979045296 | epot = 0 | etot = 4687.49979045296
1036  ekin = 4687.49979045296 | epot = 0 | etot = 4687.49979045296
1037  ekin = 4687.49979045296 | epot = 0 | etot = 4687.49979045296
1038  ekin = 4687.49979045296 | epot = 0 | etot = 4687.49979045296
1039  ekin = 4687.49979045296 | epot = 0 | etot = 4687.49979045296
1040  ekin = 4687.49979045296 | epot = 0 | etot = 4687.49979045296
1041  ekin = 4687.49979045296 | epot = 0 | etot = 4687.49979045296
1042  ekin = 4687.49979045296 | epot = 0 | etot = 4687.49979045296
1043  ekin = 4687.49979045296 | epot = 0 | etot = 4687.49979045296
1044  ekin = 4687.49979045296 | epot = 0 | etot = 4687.49979045296
1045  ekin = 4687.49979045296 | epot = 0 | etot = 4687.49979045296
1046  ekin = 4687.49979045296 | epot = 0 | etot = 4687.49979045296
1047  ekin = 4687.49979045296 | epot = 0 | etot = 4687.49979045296
1048  ekin = 4687.49979045296 | epot = 0 | etot = 4687.49979045296
1049  ekin = 4687.49979045296 | epot = 0 | etot = 4687.49979045296
1050  ekin = 4687.49979045296 | epot = 0 | etot = 4687.49979045296
1051  ekin = 4687.49979045296 | epot = 0 | etot = 4687.49979045296
1052  ekin = 4687.49979045296 | epot = 0 | etot = 4687.49979045296
1053  ekin = 4687.49979045296 | epot = 0 | etot = 4687.49979045296
1054  ekin = 4687.49979045296 | epot = 0 | etot = 4687.49979045296
1055  ekin = 4687.49979045296 | epot = 0 | etot = 4687.49979045296
1056  ekin = 4687.49979045296 | epot = 0 | etot = 4687.49979045296
1057  ekin = 4687.49979045296 | epot = 0 | etot = 4687.49979045296
1058  ekin = 4687.49979045296 | epot = 0 | etot = 4687.49979045296
1059  ekin = 4687.49979045296 | epot = 0 | etot = 4687.49979045296
1060  ekin = 4687.49979045296 | epot = 0 | etot = 4687.49979045296
1061  ekin = 4687.49979045296 | epot = 0 | etot = 4687.49979045296
1062  ekin = 4687.49979045296 | epot = 0 | etot = 4687.49979045296
1063  ekin = 4687.49979045296 | epot = 0 | etot = 4687.49979045296
1064  ekin = 4687.49979045296 | epot = 0 | etot = 4687.49979045296
1065  ekin = 4687.49979045296 | epot = 0 | etot = 4687.49979045296
1066  ekin = 4687.49979045296 | epot = 0 | etot = 4687.49979045296
1067  ekin = 4687.49979045296 | epot = 0 | etot = 4687.49979045296
1068  ekin = 4687.49979045296 | epot = 0 | etot = 4687.49979045296
1069  ekin = 4687.49979045296 | epot = 0 | etot = 4687.49979045296
1070  ekin = 4687.49979045296 | epot = 0 | etot = 4687.49979045296
1071  ekin = 4687.49979045296 | epot = 0 | etot = 4687.49979045296
1072  ekin = 4687.49979045296 | epot = 0 | etot = 4687.49979045296
1073  ekin = 4687.49979045296 | epot = 0 | etot = 4687.49979045296
1074  ekin = 4687.49979045296 | epot = 0 | etot = 4687.49979045296
1075  ekin = 4687.49979045296 | epot = 0 | etot = 4687.49979045296
1076  ekin = 4687.49979045296 | epot = 0 | etot = 4687.49979045296
1077  ekin = 4687.49979045296 | epot = 0 | etot = 4687.49979045296
1078  ekin = 4687.49979045296 | epot = 0 | etot = 4687.49979045296
1079  ekin = 4687.49979045296 | epot = 0 | etot = 4687.49979045296
1080  ekin = 4687.49979045296 | epot = 0 | etot = 4687.49979045296
1081  ekin = 4687.49979045296 | epot = 0 | etot = 4687.49979045296
1082  ekin = 4687.49979045296 | epot = 0 | etot = 4687.49979045296
1083  ekin = 4687.49979045296 | epot = 0 | etot = 4687.49979045296
1084  ekin = 4687.49979045296 | epot = 0 | etot = 4687.49979045296
1085  ekin = 4687.49979045296 | epot = 0 | etot = 4687.49979045296
1086  ekin = 4687.49979045296 | epot = 0 | etot = 4687.49979045296
1087  ekin = 4687.49979045296 | epot = 0 | etot = 4687.49979045296
1088  ekin = 4687.49979045296 | epot = 0 | etot = 4687.49979045296
1089  ekin = 4687.49979045296 | epot = 0 | etot = 4687.49979045296
1090  ekin = 4687.49979045296 | epot = 0 | etot = 4687.49979045296
1091  ekin = 4687.49979045296 | epot = 0 | etot = 4687.49979045296
1092  ekin = 4687.49979045296 | epot = 0 | etot = 4687.49979045296
1093  ekin = 4687.49979045296 | epot = 0 | etot = 4687.49979045296
1094  ekin = 4687.49979045296 | epot = 0 | etot = 4687.49979045296
1095  ekin = 4687.49979045296 | epot = 0 | etot = 4687.49979045296
1096  ekin = 4687.49979045296 | epot = 0 | etot = 4687.49979045296
1097  ekin = 4687.49979045296 | epot = 0 | etot = 4687.49979045296
1098  ekin = 4687.49979045296 | epot = 0 | etot = 4687.49979045296
1099  ekin = 4687.49979045296 | epot = 0 | etot = 4687.49979045296
1100  ekin = 4687.49979045296 | epot = 0 | etot = 4687.49979045296
1101  ekin = 4687.49979045296 | epot = 0 | etot = 4687.49979045296
1102  ekin = 4687.49979045296 | epot = 0 | etot = 4687.49979045296
1103  ekin = 4687.49979045296 | epot = 0 | etot = 4687.49979045296
1104  ekin = 4687.49979045296 | epot = 0 | etot = 4687.49979045296
1105  ekin = 4687.49979045296 | epot = 0 | etot = 4687.49979045296
1106  ekin = 4687.49979045296 | epot = 0 | etot = 4687.49979045296
1107  ekin = 4687.49979045296 | epot = 0 | etot = 4687.49979045296
1108  ekin = 4687.49979045296 | epot = 0 | etot = 4687.49979045296
1109  ekin = 4687.49979045296 | epot = 0 | etot = 4687.49979045296
1110  ekin = 4687.49979045296 | epot = 0 | etot = 4687.49979045296
1111  ekin = 4687.49979045296 | epot = 0 | etot = 4687.49979045296
1112  ekin = 4687.49979045296 | epot = 0 | etot = 4687.49979045296
1113  ekin = 4687.49979045296 | epot = 0 | etot = 4687.49979045296
1114  ekin = 4687.49979045296 | epot = 0 | etot = 4687.49979045296
1115  ekin = 4687.49979045296 | epot = 0 | etot = 4687.49979045296
1116  ekin = 4687.49979045296 | epot = 0 | etot = 4687.49979045296
1117  ekin = 4687.49979045296 | epot = 0 | etot = 4687.49979045296
1118  ekin = 4687.49979045296 | epot = 0 | etot = 4687.49979045296
1119  ekin = 4687.49979045296 | epot = 0 | etot = 4687.49979045296
1120  ekin = 4687.49979045296 | epot = 0 | etot = 4687.49979045296
1121  ekin = 4687.49979045296 | epot = 0 | etot = 4687.49979045296
1122  ekin = 4687.49979045296 | epot = 0 | etot = 4687.49979045296
1123  ekin = 4687.49979045296 | epot = 0 | etot = 4687.49979045296
1124  ekin = 4687.49979045296 | epot = 0 | etot = 4687.49979045296
1125  ekin = 4687.49979045296 | epot = 0 | etot = 4687.49979045296
1126  ekin = 4687.49979045296 | epot = 0 | etot = 4687.49979045296
1127  ekin = 4687.49979045296 | epot = 0 | etot = 4687.49979045296
1128  ekin = 4687.49979045296 | epot = 0 | etot = 4687.49979045296
1129  ekin = 4687.49979045296 | epot = 0 | etot = 4687.49979045296
1130  ekin = 4687.49979045296 | epot = 0 | etot = 4687.49979045296
1131  ekin = 4687.49979045296 | epot = 0 | etot = 4687.49979045296
1132  ekin = 4687.49979045296 | epot = 0 | etot = 4687.49979045296
1133  ekin = 4687.49979045296 | epot = 0 | etot = 4687.49979045296
1134  ekin = 4687.49979045296 | epot = 0 | etot = 4687.49979045296
1135  ekin = 4687.49979045296 | epot = 0 | etot = 4687.49979045296
1136  ekin = 4687.49979045296 | epot = 0 | etot = 4687.49979045296
1137  ekin = 4687.49979045296 | epot = 0 | etot = 4687.49979045296
1138  ekin = 4687.49979045296 | epot = 0 | etot = 4687.49979045296
1139  ekin = 4687.49979045296 | epot = 0 | etot = 4687.49979045296
1140  ekin = 4687.49979045296 | epot = 0 | etot = 4687.49979045296
1141  ekin = 4687.49979045296 | epot = 0 | etot = 4687.49979045296
1142  ekin = 4687.49979045296 | epot = 0 | etot = 4687.49979045296
1143  ekin = 4687.49979045296 | epot = 0 | etot = 4687.49979045296
1144  ekin = 4687.49979045296 | epot = 0 | etot = 4687.49979045296
1145  ekin = 4687.49979045296 | epot = 0 | etot = 4687.49979045296
[...]
9723  ekin = 4687.49979045296 | epot = 0 | etot = 4687.49979045296
9724  ekin = 4687.49979045296 | epot = 0 | etot = 4687.49979045296
9725  ekin = 4687.49979045296 | epot = 0 | etot = 4687.49979045296
9726  ekin = 4687.49979045296 | epot = 0 | etot = 4687.49979045296
9727  ekin = 4687.49979045296 | epot = 0 | etot = 4687.49979045296
9728  ekin = 4687.49979045296 | epot = 0 | etot = 4687.49979045296
9729  ekin = 4687.49979045296 | epot = 0 | etot = 4687.49979045296
9730  ekin = 4687.49979045296 | epot = 0 | etot = 4687.49979045296
9731  ekin = 4687.49979045296 | epot = 0 | etot = 4687.49979045296
9732  ekin = 4687.49979045296 | epot = 0 | etot = 4687.49979045296
9733  ekin = 4687.49979045296 | epot = 0 | etot = 4687.49979045296
9734  ekin = 4687.49979045296 | epot = 0 | etot = 4687.49979045296
9735  ekin = 4687.49979045296 | epot = 0 | etot = 4687.49979045296
9736  ekin = 4687.49979045296 | epot = 0 | etot = 4687.49979045296
9737  ekin = 4687.49979045296 | epot = 0 | etot = 4687.49979045296
9738  ekin = 4687.49979045296 | epot = 0 | etot = 4687.49979045296
9739  ekin = 4687.49979045296 | epot = 0 | etot = 4687.49979045296
9740  ekin = 4687.49979045296 | epot = 0 | etot = 4687.49979045296
9741  ekin = 4687.49979045296 | epot = 0 | etot = 4687.49979045296
9742  ekin = 4687.49979045296 | epot = 0 | etot = 4687.49979045296
9743  ekin = 4687.49979045296 | epot = 0 | etot = 4687.49979045296
9744  ekin = 4687.49979045296 | epot = 0 | etot = 4687.49979045296
9745  ekin = 4687.49979045296 | epot = 0 | etot = 4687.49979045296
9746  ekin = 4687.49979045296 | epot = 0 | etot = 4687.49979045296
9747  ekin = 4687.49979045296 | epot = 0 | etot = 4687.49979045296
9748  ekin = 4687.49979045296 | epot = 0 | etot = 4687.49979045296
9749  ekin = 4687.49979045296 | epot = 0 | etot = 4687.49979045296
9750  ekin = 4687.49979045296 | epot = 0 | etot = 4687.49979045296
9751  ekin = 4687.49979045296 | epot = 0 | etot = 4687.49979045296
9752  ekin = 4687.49979045296 | epot = 0 | etot = 4687.49979045296
9753  ekin = 4687.49979045296 | epot = 0 | etot = 4687.49979045296
9754  ekin = 4687.49979045296 | epot = 0 | etot = 4687.49979045296
9755  ekin = 4687.49979045296 | epot = 0 | etot = 4687.49979045296
9756  ekin = 4687.49979045296 | epot = 0 | etot = 4687.49979045296
9757  ekin = 4687.49979045296 | epot = 0 | etot = 4687.49979045296
9758  ekin = 4687.49979045296 | epot = 0 | etot = 4687.49979045296
9759  ekin = 4687.49979045296 | epot = 0 | etot = 4687.49979045296
9760  ekin = 4687.49979045296 | epot = 0 | etot = 4687.49979045296
9761  ekin = 4687.49979045296 | epot = 0 | etot = 4687.49979045296
9762  ekin = 4687.49979045296 | epot = 0 | etot = 4687.49979045296
9763  ekin = 4687.49979045296 | epot = 0 | etot = 4687.49979045296
9764  ekin = 4687.49979045296 | epot = 0 | etot = 4687.49979045296
9765  ekin = 4687.49979045296 | epot = 0 | etot = 4687.49979045296
9766  ekin = 4687.49979045296 | epot = 0 | etot = 4687.49979045296
9767  ekin = 4687.49979045296 | epot = 0 | etot = 4687.49979045296
9768  ekin = 4687.49979045296 | epot = 0 | etot = 4687.49979045296
9769  ekin = 4687.49979045296 | epot = 0 | etot = 4687.49979045296
9770  ekin = 4687.49979045296 | epot = 0 | etot = 4687.49979045296
9771  ekin = 4687.49979045296 | epot = 0 | etot = 4687.49979045296
9772  ekin = 4687.49979045296 | epot = 0 | etot = 4687.49979045296
9773  ekin = 4687.49979045296 | epot = 0 | etot = 4687.49979045296
9774  ekin = 4687.49979045296 | epot = 0 | etot = 4687.49979045296
9775  ekin = 4687.49979045296 | epot = 0 | etot = 4687.49979045296
9776  ekin = 4687.49979045296 | epot = 0 | etot = 4687.49979045296
9777  ekin = 4687.49979045296 | epot = 0 | etot = 4687.49979045296
9778  ekin = 4687.49979045296 | epot = 0 | etot = 4687.49979045296
9779  ekin = 4687.49979045296 | epot = 0 | etot = 4687.49979045296
9780  ekin = 4687.49979045296 | epot = 0 | etot = 4687.49979045296
9781  ekin = 4687.49979045296 | epot = 0 | etot = 4687.49979045296
9782  ekin = 4687.49979045296 | epot = 0 | etot = 4687.49979045296
9783  ekin = 4687.49979045296 | epot = 0 | etot = 4687.49979045296
9784  ekin = 4687.49979045296 | epot = 0 | etot = 4687.49979045296
9785  ekin = 4687.49979045296 | epot = 0 | etot = 4687.49979045296
9786  ekin = 4687.49979045296 | epot = 0 | etot = 4687.49979045296
9787  ekin = 4687.49979045296 | epot = 0 | etot = 4687.49979045296
9788  ekin = 4687.49979045296 | epot = 0 | etot = 4687.49979045296
9789  ekin = 4687.49979045296 | epot = 0 | etot = 4687.49979045296
9790  ekin = 4687.49979045296 | epot = 0 | etot = 4687.49979045296
9791  ekin = 4687.49979045296 | epot = 0 | etot = 4687.49979045296
9792  ekin = 4687.49979045296 | epot = 0 | etot = 4687.49979045296
9793  ekin = 4687.49979045296 | epot = 0 | etot = 4687.49979045296
9794  ekin = 4687.49979045296 | epot = 0 | etot = 4687.49979045296
9795  ekin = 4687.49979045296 | epot = 0 | etot = 4687.49979045296
9796  ekin = 4687.49979045296 | epot = 0 | etot = 4687.49979045296
9797  ekin = 4687.49979045296 | epot = 0 | etot = 4687.49979045296
9798  ekin = 4687.49979045296 | epot = 0 | etot = 4687.49979045296
9799  ekin = 4687.49979045296 | epot = 0 | etot = 4687.49979045296
9800  ekin = 4687.49979045296 | epot = 0 | etot = 4687.49979045296
9801  ekin = 4687.49979045296 | epot = 0 | etot = 4687.49979045296
9802  ekin = 4687.49979045296 | epot = 0 | etot = 4687.49979045296
9803  ekin = 4687.49979045296 | epot = 0 | etot = 4687.49979045296
9804  ekin = 4687.49979045296 | epot = 0 | etot = 4687.49979045296
9805  ekin = 4687.49979045296 | epot = 0 | etot = 4687.49979045296
9806  ekin = 4687.49979045296 | epot = 0 | etot = 4687.49979045296
9807  ekin = 4687.49979045296 | epot = 0 | etot = 4687.49979045296
9808  ekin = 4687.49979045296 | epot = 0 | etot = 4687.49979045296
9809  ekin = 4687.49979045296 | epot = 0 | etot = 4687.49979045296
9810  ekin = 4687.49979045296 | epot = 0 | etot = 4687.49979045296
9811  ekin = 4687.49979045296 | epot = 0 | etot = 4687.49979045296
9812  ekin = 4687.49979045296 | epot = 0 | etot = 4687.49979045296
9813  ekin = 4687.49979045296 | epot = 0 | etot = 4687.49979045296
9814  ekin = 4687.49979045296 | epot = 0 | etot = 4687.49979045296
9815  ekin = 4687.49979045296 | epot = 0 | etot = 4687.49979045296
9816  ekin = 4687.49979045296 | epot = 0 | etot = 4687.49979045296
9817  ekin = 4687.49979045296 | epot = 0 | etot = 4687.49979045296
9818  ekin = 4687.49979045296 | epot = 0 | etot = 4687.49979045296
9819  ekin = 4687.49979045296 | epot = 0 | etot = 4687.49979045296
9820  ekin = 4687.49979045296 | epot = 0 | etot = 4687.49979045296
9821  ekin = 4687.49979045296 | epot = 0 | etot = 4687.49979045296
9822  ekin = 4687.49979045296 | epot = 0 | etot = 4687.49979045296
9823  ekin = 4687.49979045296 | epot = 0 | etot = 4687.49979045296
9824  ekin = 4687.49979045296 | epot = 0 | etot = 4687.49979045296
9825  ekin = 4687.49979045296 | epot = 0 | etot = 4687.49979045296
9826  ekin = 4687.49979045296 | epot = 0 | etot = 4687.49979045296
9827  ekin = 4687.49979045296 | epot = 0 | etot = 4687.49979045296
9828  ekin = 4687.49979045296 | epot = 0 | etot = 4687.49979045296
9829  ekin = 4687.49979045296 | epot = 0 | etot = 4687.49979045296
9830  ekin = 4687.49979045296 | epot = 0 | etot = 4687.49979045296
9831  ekin = 4687.49979045296 | epot = 0 | etot = 4687.49979045296
9832  ekin = 4687.49979045296 | epot = 0 | etot = 4687.49979045296
9833  ekin = 4687.49979045296 | epot = 0 | etot = 4687.49979045296
9834  ekin = 4687.49979045296 | epot = 0 | etot = 4687.49979045296
9835  ekin = 4687.49979045296 | epot = 0 | etot = 4687.49979045296
9836  ekin = 4687.49979045296 | epot = 0 | etot = 4687.49979045296
9837  ekin = 4687.49979045296 | epot = 0 | etot = 4687.49979045296
9838  ekin = 4687.49979045296 | epot = 0 | etot = 4687.49979045296
9839  ekin = 4687.49979045296 | epot = 0 | etot = 4687.49979045296
9840  ekin = 4687.49979045296 | epot = 0 | etot = 4687.49979045296
9841  ekin = 4687.49979045296 | epot = 0 | etot = 4687.49979045296
9842  ekin = 4687.49979045296 | epot = 0 | etot = 4687.49979045296
9843  ekin = 4687.49979045296 | epot = 0 | etot = 4687.49979045296
9844  ekin = 4687.49979045296 | epot = 0 | etot = 4687.49979045296
9845  ekin = 4687.49979045296 | epot = 0 | etot = 4687.49979045296
9846  ekin = 4687.49979045296 | epot = 0 | etot = 4687.49979045296
9847  ekin = 4687.49979045296 | epot = 0 | etot = 4687.49979045296
9848  ekin = 4687.49979045296 | epot = 0 | etot = 4687.49979045296
9849  ekin = 4687.49979045296 | epot = 0 | etot = 4687.49979045296
9850  ekin = 4687.49979045296 | epot = 0 | etot = 4687.49979045296
9851  ekin = 4687.49979045296 | epot = 0 | etot = 4687.49979045296
9852  ekin = 4687.49979045296 | epot = 0 | etot = 4687.49979045296
9853  ekin = 4687.49979045296 | epot = 0 | etot = 4687.49979045296
9854  ekin = 4687.49979045296 | epot = 0 | etot = 4687.49979045296
9855  ekin = 4687.49979045296 | epot = 0 | etot = 4687.49979045296
9856  ekin = 4687.49979045296 | epot = 0 | etot = 4687.49979045296
9857  ekin = 4687.49979045296 | epot = 0 | etot = 4687.49979045296
9858  ekin = 4687.49979045296 | epot = 0 | etot = 4687.49979045296
9859  ekin = 4687.49979045296 | epot = 0 | etot = 4687.49979045296
9860  ekin = 4687.49979045296 | epot = 0 | etot = 4687.49979045296
9861  ekin = 4687.49979045296 | epot = 0 | etot = 4687.49979045296
9862  ekin = 4687.49979045296 | epot = 0 | etot = 4687.49979045296
9863  ekin = 4687.49979045296 | epot = 0 | etot = 4687.49979045296
9864  ekin = 4687.49979045296 | epot = 0 | etot = 4687.49979045296
9865  ekin = 4687.49979045296 | epot = 0 | etot = 4687.49979045296
9866  ekin = 4687.49979045296 | epot = 0 | etot = 4687.49979045296
9867  ekin = 4687.49979045296 | epot = 0 | etot = 4687.49979045296
9868  ekin = 4687.49979045296 | epot = 0 | etot = 4687.49979045296
9869  ekin = 4687.49979045296 | epot = 0 | etot = 4687.49979045296
9870  ekin = 4687.49979045296 | epot = 0 | etot = 4687.49979045296
9871  ekin = 4687.49979045296 | epot = 0 | etot = 4687.49979045296
9872  ekin = 4687.49979045296 | epot = 0 | etot = 4687.49979045296
9873  ekin = 4687.49979045296 | epot = 0 | etot = 4687.49979045296
9874  ekin = 4687.49979045296 | epot = 0 | etot = 4687.49979045296
9875  ekin = 4687.49979045296 | epot = 0 | etot = 4687.49979045296
9876  ekin = 4687.49979045296 | epot = 0 | etot = 4687.49979045296
9877  ekin = 4687.49979045296 | epot = 0 | etot = 4687.49979045296
9878  ekin = 4687.49979045296 | epot = 0 | etot = 4687.49979045296
9879  ekin = 4687.49979045296 | epot = 0 | etot = 4687.49979045296
9880  ekin = 4687.49979045296 | epot = 0 | etot = 4687.49979045296
9881  ekin = 4687.49979045296 | epot = 0 | etot = 4687.49979045296
9882  ekin = 4687.49979045296 | epot = 0 | etot = 4687.49979045296
9883  ekin = 4687.49979045296 | epot = 0 | etot = 4687.49979045296
9884  ekin = 4687.49979045296 | epot = 0 | etot = 4687.49979045296
9885  ekin = 4687.49979045296 | epot = 0 | etot = 4687.49979045296
9886  ekin = 4687.49979045296 | epot = 0 | etot = 4687.49979045296
9887  ekin = 4687.49979045296 | epot = 0 | etot = 4687.49979045296
9888  ekin = 4687.49979045296 | epot = 0 | etot = 4687.49979045296
9889  ekin = 4687.49979045296 | epot = 0 | etot = 4687.49979045296
9890  ekin = 4687.49979045296 | epot = 0 | etot = 4687.49979045296
9891  ekin = 4687.49979045296 | epot = 0 | etot = 4687.49979045296
9892  ekin = 4687.49979045296 | epot = 0 | etot = 4687.49979045296
9893  ekin = 4687.49979045296 | epot = 0 | etot = 4687.49979045296
9894  ekin = 4687.49979045296 | epot = 0 | etot = 4687.49979045296
9895  ekin = 4687.49979045296 | epot = 0 | etot = 4687.49979045296
9896  ekin = 4687.49979045296 | epot = 0 | etot = 4687.49979045296
9897  ekin = 4687.49979045296 | epot = 0 | etot = 4687.49979045296
9898  ekin = 4687.49979045296 | epot = 0 | etot = 4687.49979045296
9899  ekin = 4687.49979045296 | epot = 0 | etot = 4687.49979045296
9900  ekin = 4687.49979045296 | epot = 0 | etot = 4687.49979045296
9901  ekin = 4687.49979045296 | epot = 0 | etot = 4687.49979045296
9902  ekin = 4687.49979045296 | epot = 0 | etot = 4687.49979045296
9903  ekin = 4687.49979045296 | epot = 0 | etot = 4687.49979045296
9904  ekin = 4687.49979045296 | epot = 0 | etot = 4687.49979045296
9905  ekin = 4687.49979045296 | epot = 0 | etot = 4687.49979045296
9906  ekin = 4687.49979045296 | epot = 0 | etot = 4687.49979045296
9907  ekin = 4687.49979045296 | epot = 0 | etot = 4687.49979045296
9908  ekin = 4687.49979045296 | epot = 0 | etot = 4687.49979045296
9909  ekin = 4687.49979045296 | epot = 0 | etot = 4687.49979045296
9910  ekin = 4687.49979045296 | epot = 0 | etot = 4687.49979045296
9911  ekin = 4687.49979045296 | epot = 0 | etot = 4687.49979045296
9912  ekin = 4687.49979045296 | epot = 0 | etot = 4687.49979045296
9913  ekin = 4687.49979045296 | epot = 0 | etot = 4687.49979045296
9914  ekin = 4687.49979045296 | epot = 0 | etot = 4687.49979045296
9915  ekin = 4687.49979045296 | epot = 0 | etot = 4687.49979045296
9916  ekin = 4687.49979045296 | epot = 0 | etot = 4687.49979045296
9917  ekin = 4687.49979045296 | epot = 0 | etot = 4687.49979045296
9918  ekin = 4687.49979045296 | epot = 0 | etot = 4687.49979045296
9919  ekin = 4687.49979045296 | epot = 0 | etot = 4687.49979045296
9920  ekin = 4687.49979045296 | epot = 0 | etot = 4687.49979045296
9921  ekin = 4687.49979045296 | epot = 0 | etot = 4687.49979045296
9922  ekin = 4687.49979045296 | epot = 0 | etot = 4687.49979045296
9923  ekin = 4687.49979045296 | epot = 0 | etot = 4687.49979045296
9924  ekin = 4687.49979045296 | epot = 0 | etot = 4687.49979045296
9925  ekin = 4687.49979045296 | epot = 0 | etot = 4687.49979045296
9926  ekin = 4687.49979045296 | epot = 0 | etot = 4687.49979045296
9927  ekin = 4687.49979045296 | epot = 0 | etot = 4687.49979045296
9928  ekin = 4687.49979045296 | epot = 0 | etot = 4687.49979045296
9929  ekin = 4687.49979045296 | epot = 0 | etot = 4687.49979045296
9930  ekin = 4687.49979045296 | epot = 0 | etot = 4687.49979045296
9931  ekin = 4687.49979045296 | epot = 0 | etot = 4687.49979045296
9932  ekin = 4687.49979045296 | epot = 0 | etot = 4687.49979045296
9933  ekin = 4687.49979045296 | epot = 0 | etot = 4687.49979045296
9934  ekin = 4687.49979045296 | epot = 0 | etot = 4687.49979045296
9935  ekin = 4687.49979045296 | epot = 0 | etot = 4687.49979045296
9936  ekin = 4687.49979045296 | epot = 0 | etot = 4687.49979045296
9937  ekin = 4687.49979045296 | epot = 0 | etot = 4687.49979045296
9938  ekin = 4687.49979045296 | epot = 0 | etot = 4687.49979045296
9939  ekin = 4687.49979045296 | epot = 0 | etot = 4687.49979045296
9940  ekin = 4687.49979045296 | epot = 0 | etot = 4687.49979045296
9941  ekin = 4687.49979045296 | epot = 0 | etot = 4687.49979045296
9942  ekin = 4687.49979045296 | epot = 0 | etot = 4687.49979045296
9943  ekin = 4687.49979045296 | epot = 0 | etot = 4687.49979045296
9944  ekin = 4687.49979045296 | epot = 0 | etot = 4687.49979045296
9945  ekin = 4687.49979045296 | epot = 0 | etot = 4687.49979045296
9946  ekin = 4687.49979045296 | epot = 0 | etot = 4687.49979045296
9947  ekin = 4687.49979045296 | epot = 0 | etot = 4687.49979045296
9948  ekin = 4687.49979045296 | epot = 0 | etot = 4687.49979045296
9949  ekin = 4687.49979045296 | epot = 0 | etot = 4687.49979045296
9950  ekin = 4687.49979045296 | epot = 0 | etot = 4687.49979045296
9951  ekin = 4687.49979045296 | epot = 0 | etot = 4687.49979045296
9952  ekin = 4687.49979045296 | epot = 0 | etot = 4687.49979045296
9953  ekin = 4687.49979045296 | epot = 0 | etot = 4687.49979045296
9954  ekin = 4687.49979045296 | epot = 0 | etot = 4687.49979045296
9955  ekin = 4687.49979045296 | epot = 0 | etot = 4687.49979045296
9956  ekin = 4687.49979045296 | epot = 0 | etot = 4687.49979045296
9957  ekin = 4687.49979045296 | epot = 0 | etot = 4687.49979045296
9958  ekin = 4687.49979045296 | epot = 0 | etot = 4687.49979045296
9959  ekin = 4687.49979045296 | epot = 0 | etot = 4687.49979045296
9960  ekin = 4687.49979045296 | epot = 0 | etot = 4687.49979045296
9961  ekin = 4687.49979045296 | epot = 0 | etot = 4687.49979045296
9962  ekin = 4687.49979045296 | epot = 0 | etot = 4687.49979045296
9963  ekin = 4687.49979045296 | epot = 0 | etot = 4687.49979045296
9964  ekin = 4687.49979045296 | epot = 0 | etot = 4687.49979045296
9965  ekin = 4687.49979045296 | epot = 0 | etot = 4687.49979045296
9966  ekin = 4687.49979045296 | epot = 0 | etot = 4687.49979045296
9967  ekin = 4687.49979045296 | epot = 0 | etot = 4687.49979045296
9968  ekin = 4687.49979045296 | epot = 0 | etot = 4687.49979045296
9969  ekin = 4687.49979045296 | epot = 0 | etot = 4687.49979045296
9970  ekin = 4687.49979045296 | epot = 0 | etot = 4687.49979045296
9971  ekin = 4687.49979045296 | epot = 0 | etot = 4687.49979045296
9972  ekin = 4687.49979045296 | epot = 0 | etot = 4687.49979045296
9973  ekin = 4687.49979045296 | epot = 0 | etot = 4687.49979045296
9974  ekin = 4687.49979045296 | epot = 0 | etot = 4687.49979045296
9975  ekin = 4687.49979045296 | epot = 0 | etot = 4687.49979045296
9976  ekin = 4687.49979045296 | epot = 0 | etot = 4687.49979045296
9977  ekin = 4687.49979045296 | epot = 0 | etot = 4687.49979045296
9978  ekin = 4687.49979045296 | epot = 0 | etot = 4687.49979045296
9979  ekin = 4687.49979045296 | epot = 0 | etot = 4687.49979045296
9980  ekin = 4687.49979045296 | epot = 0 | etot = 4687.49979045296
9981  ekin = 4687.49979045296 | epot = 0 | etot = 4687.49979045296
9982  ekin = 4687.49979045296 | epot = 0 | etot = 4687.49979045296
9983  ekin = 4687.49979045296 | epot = 0 | etot = 4687.49979045296
9984  ekin = 4687.49979045296 | epot = 0 | etot = 4687.49979045296
9985  ekin = 4687.49979045296 | epot = 0 | etot = 4687.49979045296
9986  ekin = 4687.49979045296 | epot = 0 | etot = 4687.49979045296
9987  ekin = 4687.49979045296 | epot = 0 | etot = 4687.49979045296
9988  ekin = 4687.49979045296 | epot = 0 | etot = 4687.49979045296
9989  ekin = 4687.49979045296 | epot = 0 | etot = 4687.49979045296
9990  ekin = 4687.49979045296 | epot = 0 | etot = 4687.49979045296
9991  ekin = 4687.49979045296 | epot = 0 | etot = 4687.49979045296
9992  ekin = 4687.49979045296 | epot = 0 | etot = 4687.49979045296
9993  ekin = 4687.49979045296 | epot = 0 | etot = 4687.49979045296
9994  ekin = 4687.49979045296 | epot = 0 | etot = 4687.49979045296
9995  ekin = 4687.49979045296 | epot = 0 | etot = 4687.49979045296
9996  ekin = 4687.49979045296 | epot = 0 | etot = 4687.49979045296
9997  ekin = 4687.49979045296 | epot = 0 | etot = 4687.49979045296
9998  ekin = 4687.49979045296 | epot = 0 | etot = 4687.49979045296
9999  ekin = 4687.49979045296 | epot = 0 | etot = 4687.49979045296
10000  ekin = 4687.49979045296 | epot = 0 | etot = 4687.49979045296
     10000   1562.4999      0              0              1562.4999      19.531249    
Loop time of 33.5358 on 2 procs for 10000 steps with 3 atoms

Performance: 25763.483 tau/day, 298.188 timesteps/s, 894.565 atom-step/s
96.7% CPU use with 2 MPI tasks x 1 OpenMP threads

MPI task timing breakdown:
Section |  min time  |  avg time  |  max time  |%varavg| %total
---------------------------------------------------------------
Pair    | 0.41913    | 0.43733    | 0.45554    |   2.8 |  1.30
Neigh   | 22.626     | 23.122     | 23.618     |  10.3 | 68.95
Comm    | 4.7405     | 4.7797     | 4.8189     |   1.8 | 14.25
Output  | 0.67795    | 1.1394     | 1.6008     |  43.2 |  3.40
Modify  | 2.4135     | 2.9333     | 3.4531     |  30.3 |  8.75
Other   |            | 1.124      |            |       |  3.35

Nlocal:            1.5 ave           3 max           0 min
Histogram: 1 0 0 0 0 0 0 0 0 1
Nghost:              0 ave           0 max           0 min
Histogram: 2 0 0 0 0 0 0 0 0 0
Neighs:              0 ave           0 max           0 min
Histogram: 2 0 0 0 0 0 0 0 0 0

Total # of neighbors = 0
Ave neighs/atom = 0
Neighbor list builds = 10000
Dangerous builds = 10000

write_data data_out.* nocoeff
System init for write_data ...
Generated 0 of 0 mixed pair_coeff terms from geometric mixing rule

Total wall time: 0:00:33
