ITEM: TIMESTEP
0
ITEM: NUMBER OF ATOMS
16
ITEM: BOX BOUNDS pp pp pp
-2.0000000000000000e+01 2.0000000000000000e+01
-2.0000000000000000e+01 2.0000000000000000e+01
-2.0000000000000000e+01 2.0000000000000000e+01
ITEM: ATOMS id mol type x y z ix iy iz vx vy vz c_quat[1] c_quat[2] c_quat[3] c_quat[4] angmomx angmomy angmomz
1 1 1 -6.133472972454725e-01 -6.574781716697660e-01  3.606522635120190e-01 0 0 0  5.386890022865587e-02  2.262922525602673e-02  2.488229114473675e-01  9.964752158482045e-01 -5.325355573323980e-02  1.139116380710251e-02 -6.380787090289707e-02  1.772010258006941e-01 -2.958853170000101e-01 -2.624137503614725e-01
2 1 2 -4.526276424735636e-01 -1.003065053434591e+00  7.258693379233347e-01 0 0 0 -3.995003075629463e-02  2.696951106370198e-01 -1.898645454819566e-01  9.369923833143513e-01  1.122071604464856e-01  6.732538499716349e-02  3.239168400846305e-01 -3.061453937596818e-02 -1.176951893148060e-01  4.007470242647321e-02
3 1 3 -9.883421085226410e-02 -1.239775807128057e+00  1.069462285786363e+00 0 0 0 -2.078453529520138e-01 -1.362872235767304e-01 -6.062477950201746e-02  7.979649320918270e-01  1.447309635452787e-01  1.837414269936639e-01  5.554673737937029e-01 -3.676034584820381e-02 -6.308707793373186e-02 -1.479860157608762e-01
4 1 4  2.937771854299732e-01 -1.257975092489984e+00  1.425891608660697e+00 0 0 0 -2.396982418131700e-01 -5.624721730878831e-01  3.247442290503672e-02  5.660864821344559e-01  1.468827549948105e-01  9.873742533340191e-02  8.051226439917721e-01 -1.652364596501651e-01  2.860623077030974e-01  3.354351975310588e-01
5 1 1  6.286896795685137e-01 -1.018334339511974e+00  1.768934633967282e+00 0 0 0 -1.611489735682835e-01 -2.288969747076015e-01 -1.355332496264956e-01  2.533023785125306e-01  1.206231316167983e-01  8.583012223905846e-02  9.559922359911086e-01  7.151030852881342e-02 -9.415592891043179e-02  1.342288153931229e-01
6 1 2  7.901522619067926e-01 -6.766341805565266e-01  2.154016070549575e+00 0 0 0 -4.701706588477693e-02  1.921671558511004e-01  1.458824279129722e-01 -3.855807343534716e-02  8.405913137017908e-02  2.236505169306371e-02  9.954632800204194e-01  9.218622989776322e-02 -5.640128930702024e-01  9.287105657777776e-02
7 1 3  7.115777184886863e-01 -4.019557932514345e-01  2.569568683291525e+00 0 0 0  5.098438305112513e-02 -3.845955552200959e-02 -1.424419628574967e-01 -4.559284433024802e-01  1.004550065061007e-01 -5.252474529475878e-02  8.827679181910482e-01  3.479046835475834e-01  4.244922695910593e-01 -1.358288260435836e-01
8 1 4  4.697331037700523e-01 -3.025169796710703e-01  3.066800711751922e+00 0 0 0  3.782797134841193e-01 -4.953992506010833e-02  1.626392045834847e-01  7.680212215404908e-01 -9.582139884533597e-03  3.658677589040892e-02 -6.393066507464399e-01  4.428876596361290e-02  7.868414126013584e-02 -1.271360044432503e-01
9 2 1  4.056113349449848e-01 -1.443775499211898e+00  3.059072650334112e+00 0 0 0  4.912038408665491e-02  4.126064731871670e-02  1.222385633449523e-02 -2.329997575451234e-01  6.886863952313410e-01  6.747873944883376e-01 -1.268232401684158e-01  3.282916621721876e-02 -1.267054709525600e-04  1.559787854176960e-01
10 2 2 -3.202842905928752e-02 -1.294752097116472e+00  2.720107115139219e+00 0 0 0  1.939216183073483e-01  1.107523548538194e-01 -4.050505160199710e-02 -2.466206187190723e-01  8.744456399178389e-01  3.937083608782400e-01 -1.397026120939516e-01 -1.700813500181381e-01 -4.563093565840761e-01 -3.031851362703951e-01
11 2 3 -3.161385511231407e-01 -9.084141759061610e-01  2.412520787178201e+00 0 0 0 -3.513607339206460e-01 -1.882241906753569e-01  3.614793819905130e-01 -8.747590085090901e-02  9.773676023882290e-01  1.449354911309558e-01 -1.268630757266878e-01 -3.708221604627426e-01 -4.910838182594122e-01  9.435948331955418e-02
12 2 4 -3.893939125182100e-01 -4.866605488242819e-01  2.006177777000426e+00 0 0 0 -1.188642917357977e-01  2.235528245655188e-01  9.265586122144348e-03 -3.181169300779214e-02  9.634374984140114e-01 -2.442360692534372e-01 -1.054748563087919e-01 -2.823010018885836e-01  1.027648566082889e-01  1.017523347678070e-01
13 3 1 -6.232643040853296e-02 -7.155965522127403e-02  1.559320605273073e+00 0 0 0 -1.446616296238799e-01 -1.155205990978724e-01  1.331477187595642e-01 -3.278607069657226e-02  7.922941528811774e-01 -6.084214170523914e-01 -3.191282109962716e-02 -2.549872189037434e-01  2.754663721641154e-01  5.806416868630132e-02
14 3 2  1.788409039091338e-01 -5.516721349427172e-02  1.021273149730912e+00 0 0 0  5.154712003586254e-02 -3.661102651077563e-01 -6.630782880801242e-02  4.718868628834144e-02  6.316396208287697e-01 -7.737349519945346e-01  1.178309584462780e-02 -1.199984717331652e-01  6.844768922886051e-02  2.161595932308759e-01
15 3 3  4.513439961906000e-01 -2.379560738327457e-01  5.957328539615993e-01 0 0 0 -2.021424496209139e-01  2.334122693355961e-01  8.133374252278069e-03 -5.869980642620334e-02 -3.422935820341442e-01  9.376740835056506e-01  1.251996587850869e-02 -1.701391112413525e-01  1.870292260510287e-02 -2.682954134361106e-01
16 3 4  5.077649359807965e-01 -5.565625134533538e-01  1.655875784458841e-01 0 0 0 -1.920213116286801e-01 -8.105295741355378e-02 -4.693508108850740e-02 -8.582818143150042e-02  8.707732197394232e-04  9.939540921464659e-01 -6.846917358531610e-02  1.733210765264759e-02 -3.287658886280769e-01  1.085334141225924e-01
ITEM: TIMESTEP
1000
ITEM: NUMBER OF ATOMS
16
ITEM: BOX BOUNDS pp pp pp
-2.0000000000000000e+01 2.0000000000000000e+01
-2.0000000000000000e+01 2.0000000000000000e+01
-2.0000000000000000e+01 2.0000000000000000e+01
ITEM: ATOMS id mol type x y z ix iy iz vx vy vz c_quat[1] c_quat[2] c_quat[3] c_quat[4] angmomx angmomy angmomz
1 1 1 -6.127936525102800e-01 -6.572900069550155e-01  3.630888071051123e-01 0 0 0  5.676462562075676e-02  1.518727846191807e-02  2.380012624554114e-01  9.964203786967804e-01 -5.088080930342631e-02  8.442642906697275e-03 -6.697980250152534e-02  1.948222267211011e-01 -2.707251008082823e-01 -2.655680200874563e-01
2 1 2 -4.530236164006832e-01 -1.000361915096339e+00  7.239858214777478e-01 0 0 0 -3.911771291306037e-02  2.706786881128393e-01 -1.862902072294400e-01  9.369792470569378e-01  1.114053539615290e-01  6.624855111697259e-02  3.244531817816286e-01 -3.249725157130425e-02 -1.139168361598444e-01  3.624747328041276e-02
3 1 3 -1.009410828901625e-01 -1.241112101008324e+00  1.068947011325563e+00 0 0 0 -2.135474384236680e-01 -1.309787333985828e-01 -4.245369421019218e-02  7.991290393623244e-01  1.443982136441095e-01  1.829432844744273e-01  5.541423003254194e-01 -4.097590108929288e-03 -8.375296037765310e-02 -1.579017428975384e-01
4 1 4  2.914060483706425e-01 -1.263558885835494e+00  1.426157232398444e+00 0 0 0 -2.345115636030227e-01 -5.541786092337398e-01  2.060035269968258e-02  5.629167234712676e-01  1.479622196427288e-01  1.028034608769014e-01  8.066370884273181e-01 -1.910146641728457e-01  2.814900508546547e-01  3.432035514741108e-01
5 1 1  6.270732810973754e-01 -1.020614483055314e+00  1.767581307469387e+00 0 0 0 -1.620690792586005e-01 -2.270136086583371e-01 -1.350989550673640e-01  2.518491257207198e-01  1.196941656181994e-01  8.497621355262817e-02  9.565690606124214e-01  6.861660641153762e-02 -8.852783714421258e-02  1.291143055770784e-01
6 1 2  7.896658935038389e-01 -6.747507049734426e-01  2.155491502037022e+00 0 0 0 -5.026938180221038e-02  1.843013191372158e-01  1.491682841754244e-01 -3.963624872967170e-02  7.758991907586210e-02  2.168181151302458e-02  9.959611796119137e-01  8.723487757043701e-02 -5.549038892154772e-01  1.055532339753255e-01
7 1 3  7.120582233063892e-01 -4.023185351331856e-01  2.568192485330471e+00 0 0 0  4.507002966127696e-02 -3.400369880654758e-02 -1.327240041482788e-01 -4.546894461993586e-01  1.028073287362324e-01 -5.836160539024312e-02  8.827695529917842e-01  3.405970379272217e-01  4.112725815811031e-01 -1.351548610049577e-01
8 1 4  4.735504374334917e-01 -3.030404292584009e-01  3.068364972592769e+00 0 0 0  3.851538525078897e-01 -5.515699582495102e-02  1.501513907056491e-01  7.670569571655605e-01 -9.728487431147301e-03  3.765085828643619e-02 -6.403994018317853e-01  4.611818409791155e-02  8.424201189139266e-02 -1.271197736264727e-01
9 2 1  4.060622651273751e-01 -1.443364770845101e+00  3.059138528673986e+00 0 0 0  4.105345880436351e-02  4.088857317322415e-02  9.525524000655182e-04 -2.329977239011297e-01  6.873828769999893e-01  6.760809549337263e-01 -1.270093832754539e-01  2.654673925917735e-02 -1.584434830782488e-03  1.596768441532701e-01
10 2 2 -3.006723246043040e-02 -1.293597735465939e+00  2.719745584631999e+00 0 0 0  1.982498236614768e-01  1.200668763947793e-01 -3.166121003881798e-02 -2.432778214296964e-01  8.769907957988486e-01  3.917550345322168e-01 -1.350223633446863e-01 -1.747799078144628e-01 -4.630814210048256e-01 -2.879119392342031e-01
11 2 3 -3.196435234636368e-01 -9.102455367890095e-01  2.416093647303453e+00 0 0 0 -3.495483594429229e-01 -1.778627764777553e-01  3.528226806068675e-01 -8.245363940445309e-02  9.782816075898487e-01  1.458537691197026e-01 -1.220375828749408e-01 -3.554301340735539e-01 -4.904771109845079e-01  7.620416916907388e-02
12 2 4 -3.905728971915857e-01 -4.845208615981381e-01  2.006325206770979e+00 0 0 0 -1.169379462853551e-01  2.042489629724500e-01  2.034974987704173e-02 -2.830391875086510e-02  9.636903772787605e-01 -2.434951142506231e-01 -1.058766936570125e-01 -2.767064673052341e-01  1.048482362808106e-01  9.988254088868211e-02
13 3 1 -6.373831494852254e-02 -7.271141889643649e-02  1.560599903675273e+00 0 0 0 -1.376657723527459e-01 -1.148498784143296e-01  1.227000584458841e-01 -2.854886130718266e-02  7.927177408777213e-01 -6.080419492234848e-01 -3.268843526830720e-02 -2.475505850381815e-01  2.756915077289027e-01  6.710869310060279e-02
14 3 2  1.793644483981462e-01 -5.884870154972768e-02  1.020644767735635e+00 0 0 0  5.304817407190576e-02 -3.700342840143274e-01 -5.934837541790026e-02  4.859778879095984e-02  6.335291269055809e-01 -7.720900024845756e-01  1.249513306249745e-02 -1.185981514861651e-01  6.046730878009095e-02  2.220671215296277e-01
15 3 3  4.492958819432092e-01 -2.356383613560070e-01  5.958111482559147e-01 0 0 0 -2.074453440148322e-01  2.299354897195555e-01  7.376111203365839e-03 -5.952079159091373e-02 -3.392589903443923e-01  9.387454954961152e-01  1.084008877490484e-02 -1.861046232594724e-01  1.070670671402448e-02 -2.716803165990636e-01
16 3 4  5.058286075707901e-01 -5.573396897223092e-01  1.651387495758003e-01 0 0 0 -1.952153285419392e-01 -7.432287957448577e-02 -4.268961111602713e-02 -8.198799355406698e-02 -8.620779202651234e-05  9.942855987019107e-01 -6.836746079223610e-02  1.786164920570031e-02 -3.289368790365447e-01  1.012111325889587e-01
ITEM: TIMESTEP
2000
ITEM: NUMBER OF ATOMS
16
ITEM: BOX BOUNDS pp pp pp
-2.0000000000000000e+01 2.0000000000000000e+01
-2.0000000000000000e+01 2.0000000000000000e+01
-2.0000000000000000e+01 2.0000000000000000e+01
ITEM: ATOMS id mol type x y z ix iy iz vx vy vz c_quat[1] c_quat[2] c_quat[3] c_quat[4] angmomx angmomy angmomz
1 1 1 -6.122140943974941e-01 -6.571706323866801e-01  3.654022521678108e-01 0 0 0  5.903393649575341e-02  8.882167672728059e-03  2.241709269192001e-01  9.963472500289801e-01 -4.832656062504984e-02  5.814443138914323e-03 -7.016333193931718e-02  2.122341853420123e-01 -2.425022885726746e-01 -2.677364116066558e-01
2 1 2 -4.534072475848913e-01 -9.976566644650322e-01  7.221549539181950e-01 0 0 0 -3.746160187988069e-02  2.701084490083492e-01 -1.792929747175161e-01  9.369804534215264e-01  1.106090671494909e-01  6.519394269438195e-02  3.249353997431980e-01 -3.183526579604427e-02 -1.129074001081864e-01  3.078225806564350e-02
3 1 3 -1.031055103152577e-01 -1.242395562930704e+00  1.068612529599009e+00 0 0 0 -2.193544969356712e-01 -1.257250020897291e-01 -2.448666007270569e-02  8.003385586715668e-01  1.442512720273798e-01  1.817352355963629e-01  5.528309562286978e-01  2.787898212931810e-02 -1.039578977221131e-01 -1.666558813638659e-01
4 1 4  2.890872823615482e-01 -1.269056514053503e+00  1.426302867502586e+00 0 0 0 -2.292262108026570e-01 -5.452397515912827e-01  8.501835391176873e-03  5.597143368247940e-01  1.488194281900867e-01  1.070805098628647e-01  8.081499881540962e-01 -2.157815198425423e-01  2.761704234982230e-01  3.492548064554656e-01
5 1 1  6.254494778494779e-01 -1.022872311322993e+00  1.766233203353748e+00 0 0 0 -1.626352359186079e-01 -2.244401270555617e-01 -1.344997427830134e-01  2.504462287928897e-01  1.188199740995152e-01  8.416791200153242e-02  9.571176849414667e-01  6.484619386492335e-02 -8.321168874338718e-02  1.247564483139374e-01
6 1 2  7.891466288716804e-01 -6.729525731757530e-01  2.156998671609343e+00 0 0 0 -5.359541962913871e-02  1.751097898535837e-01  1.522243056136913e-01 -4.084748512472035e-02  7.124124892393011e-02  2.106258861533445e-02  9.963997866175834e-01  8.183810467027811e-02 -5.422750205147804e-01  1.167532945088714e-01
7 1 3  7.124782562248416e-01 -4.026342200195953e-01  2.566915570865450e+00 0 0 0  3.889692312190620e-02 -2.905367160810740e-02 -1.225952546228643e-01 -4.534427769577069e-01  1.050534983924782e-01 -6.404652390187345e-02  8.827522037788813e-01  3.330161508078811e-01  3.965823238352669e-01 -1.338645245972114e-01
8 1 4  4.774354722186006e-01 -3.036202265633540e-01  3.069802635014186e+00 0 0 0  3.918154373376571e-01 -6.080621440016342e-02  1.373319936529243e-01  7.660876953422437e-01 -9.897831236398895e-03  3.878152280807542e-02 -6.414886354961497e-01  4.864721882098615e-02  9.017180499453338e-02 -1.271840823830230e-01
9 2 1  4.064322141467726e-01 -1.442957636831176e+00  3.059091796407544e+00 0 0 0  3.292962015230060e-02  4.054378574071444e-02 -1.029008081574371e-02 -2.329282812276535e-01  6.860700421578344e-01  6.773941982546650e-01 -1.272376250517052e-01  2.062923433188020e-02 -3.616200525743541e-03  1.626299136268883e-01
10 2 2 -2.806480530452617e-02 -1.292351865947074e+00  2.719476592948601e+00 0 0 0  2.021661899679616e-01  1.290496926866568e-01 -2.200733611950305e-02 -2.398240453700175e-01  8.794482257481117e-01  3.899578884817617e-01 -1.303383700285693e-01 -1.793800708862214e-01 -4.689986449190594e-01 -2.709403793678128e-01
11 2 3 -3.231278129346163e-01 -9.119679444713341e-01  2.419572096979778e+00 0 0 0 -3.472246064006926e-01 -1.664553204215699e-01  3.426228897526314e-01 -7.763054825040305e-02  9.791613378006869e-01  1.465791738726174e-01 -1.171798545891411e-01 -3.397075893883509e-01 -4.880328878389414e-01  5.770361703309876e-02
12 2 4 -3.917328141285324e-01 -4.825780410879700e-01  2.006587118772956e+00 0 0 0 -1.150542269820078e-01  1.842034780568984e-01  3.213830002777317e-02 -2.485511931918195e-02  9.639218404737762e-01 -2.427655370644603e-01 -1.063099361070323e-01 -2.711746704148771e-01  1.060023188941007e-01  9.801276760740091e-02
13 3 1 -6.507879451999569e-02 -7.385701629528837e-02  1.561774420668554e+00 0 0 0 -1.303844975280424e-01 -1.142881677658110e-01  1.121965577741164e-01 -2.437508838157094e-02  7.931876234432867e-01 -6.075654290058091e-01 -3.351863004015318e-02 -2.401384605856607e-01  2.755390835508574e-01  7.626585960232833e-02
14 3 2  1.798995519730351e-01 -6.256475013654585e-02  1.020086572870355e+00 0 0 0  5.385463812874186e-02 -3.730138796084272e-01 -5.227177319626800e-02  4.992368394284181e-02  6.354627791525375e-01 -7.704018674221973e-01  1.325310400245347e-02 -1.167200373506176e-01  5.266684172543162e-02  2.274129051223308e-01
15 3 3  4.471958858049588e-01 -2.333612317706350e-01  5.958775569222680e-01 0 0 0 -2.125093350124395e-01  2.252987054985202e-01  5.773131993290997e-03 -6.030834662999202e-02 -3.361807828115657e-01  9.398218112438552e-01  8.963688151589388e-03 -2.007333371048858e-01  1.684930307116821e-03 -2.737271896956751e-01
16 3 4  5.038611969972497e-01 -5.580478888448468e-01  1.647364006125944e-01 0 0 0 -1.982390764258712e-01 -6.726821040786862e-02 -3.765973345581700e-02 -7.816021313868618e-02 -9.558605262214998e-04  9.946011495322723e-01 -6.825408970788706e-02  1.791661313455377e-02 -3.274522356481716e-01  9.311117451746291e-02
ITEM: TIMESTEP
3000
ITEM: NUMBER OF ATOMS
16
ITEM: BOX BOUNDS pp pp pp
-2.0000000000000000e+01 2.0000000000000000e+01
-2.0000000000000000e+01 2.0000000000000000e+01
-2.0000000000000000e+01 2.0000000000000000e+01
ITEM: ATOMS id mol type x y z ix iy iz vx vy vz c_quat[1] c_quat[2] c_quat[3] c_quat[4] angmomx angmomy angmomz
1 1 1 -6.116153845507367e-01 -6.571084204796500e-01  3.675616757285901e-01 0 0 0  6.058101326211437e-02  3.758331605106611e-03  2.071790996884878e-01  9.962573052124044e-01 -4.559711051642178e-02  3.541896486514214e-03 -7.334671289669646e-02  2.294104667204847e-01 -2.111624352704080e-01 -2.689183949997635e-01
2 1 2 -4.537697557866038e-01 -9.949650262382062e-01  7.204120439309437e-01 0 0 0 -3.487909325406241e-02  2.679561619623871e-01 -1.686754228175532e-01  9.370012510926383e-01  1.098372819921647e-01  6.411888770314286e-02  3.253508800896595e-01 -2.845672796613397e-02 -1.148204160143172e-01  2.357259198181287e-02
3 1 3 -1.053284739396828e-01 -1.243626885907328e+00  1.068456217104496e+00 0 0 0 -2.252517137585757e-01 -1.205570968330130e-01 -6.837441286196363e-03  8.015848582480392e-01  1.442838596894616e-01  1.801292045268154e-01  5.515408892703419e-01  5.892276998316170e-02 -1.236037407631172e-01 -1.741329710627191e-01
4 1 4  2.868218187836225e-01 -1.274461537730850e+00  1.426327024444377e+00 0 0 0 -2.238523010850693e-01 -5.356578962916262e-01 -3.670066094966148e-03  5.564943863448322e-01  1.494577822145591e-01  1.115506121374962e-01  8.096498195108452e-01 -2.392363320219992e-01  2.701925699430485e-01  3.534604602550073e-01
5 1 1  6.238216502884761e-01 -1.025101108466503e+00  1.764891661195912e+00 0 0 0 -1.628791830626395e-01 -2.212134617800409e-01 -1.337955291145455e-01  2.490867817236058e-01  1.179933417715463e-01  8.341503078631150e-02  9.576404748688719e-01  6.017671965121338e-02 -7.830583777681135e-02  1.212056777152463e-01
6 1 2  7.885937526264123e-01 -6.712527001254180e-01  2.158535087697789e+00 0 0 0 -5.699129266991088e-02  1.646609710245309e-01  1.550098360427997e-01 -4.217549989853692e-02  6.505374670735313e-02  2.050845481453772e-02  9.967791332731462e-01  7.603920446539701e-02 -5.262766642620879e-01  1.264413424456937e-01
7 1 3  7.128354422483454e-01 -4.028980714355302e-01  2.565741771483136e+00 0 0 0  3.250804609493532e-02 -2.364250863305197e-02 -1.121087240193272e-01 -4.521972600602606e-01  1.071809439695077e-01 -6.956865524534696e-02  8.827174437220283e-01  3.251689424638003e-01  3.804987888430401e-01 -1.319504299471726e-01
8 1 4  4.813859488765709e-01 -3.042565981362261e-01  3.071110746738893e+00 0 0 0  3.982378562625727e-01 -6.646886126447803e-02  1.242526769821950e-01  7.651125975451636e-01 -1.008691845680084e-02  3.998687646621911e-02 -6.425745224207182e-01  5.183135618917492e-02  9.644742083681902e-02 -1.273189638063222e-01
9 2 1  4.067207809187508e-01 -1.442553763549105e+00  3.058932994093634e+00 0 0 0  2.478287950666782e-02  4.023847792889410e-02 -2.145242851217444e-02 -2.327910858138825e-01  6.847533481797307e-01  6.787232781904310e-01 -1.274985261274688e-01  1.511922867421100e-02 -6.230825760900774e-03  1.648502346752385e-01
10 2 2 -2.602531400719507e-02 -1.291017922303427e+00  2.719307910585989e+00 0 0 0  2.056608843849726e-01  1.376785187616827e-01 -1.161221195109105e-02 -2.362629350973978e-01  8.818091048219635e-01  3.883316144450530e-01 -1.256625854212347e-01 -1.838599016462338e-01 -4.740504180557685e-01 -2.524530737013518e-01
11 2 3 -3.265863298871785e-01 -9.135715936776940e-01  2.422941475331976e+00 0 0 0 -3.443953096332618e-01 -1.541330319570102e-01  3.310341798792221e-01 -7.301278719162577e-02  9.800077165100991e-01  1.471064200266512e-01 -1.123107727429299e-01 -3.237493178654300e-01 -4.838277291571697e-01  3.895376295855044e-02
12 2 4 -3.928741854779040e-01 -4.808387924467014e-01  2.006969862825731e+00 0 0 0 -1.132314775208158e-01  1.635576713291336e-01  4.449423342920118e-02 -2.146728804129262e-02  9.641336584659378e-01 -2.420469333735793e-01 -1.067648172465289e-01 -2.656756986610994e-01  1.063295765429797e-01  9.618246581597724e-02
13 3 1 -6.634512993959948e-02 -7.499756019679470e-02  1.562843746203618e+00 0 0 0 -1.228407162987102e-01 -1.138398023332235e-01  1.016663700121359e-01 -2.026702890091656e-02  7.937052640816238e-01 -6.069908484060829e-01 -3.439929156121189e-02 -2.327736187616803e-01  2.750162987551324e-01  8.552909001914183e-02
14 3 2  1.804391422949803e-01 -6.630567542424742e-02  1.019599692003770e+00 0 0 0  5.394152549694770e-02 -3.750026918806545e-01 -4.508737659185019e-02  5.116485413532373e-02  6.374353367918409e-01 -7.686747739225064e-01  1.405137166141946e-02 -1.143861681274415e-01  4.508181869839806e-02  2.321284084825813e-01
15 3 3  4.450466784091112e-01 -2.311361793649846e-01  5.959241314750131e-01 0 0 0 -2.172784806197232e-01  2.195245680012789e-01  3.426329908312467e-03 -6.104629199583789e-02 -3.330741880306317e-01  9.408970788809995e-01  6.900902440753892e-03 -2.139849935439762e-01 -8.240538769712539e-03 -2.743738389092827e-01
16 3 4  5.018643667823803e-01 -5.586841875841241e-01  1.643877632225228e-01 0 0 0 -2.011005994161258e-01 -5.995362607098871e-02 -3.196714021327569e-02 -7.436366364675663e-02 -1.730304562430160e-03  9.948993941706502e-01 -6.813403741175560e-02  1.751615148998279e-02 -3.244471122374100e-01  8.427504554185458e-02
ITEM: TIMESTEP
4000
ITEM: NUMBER OF ATOMS
16
ITEM: BOX BOUNDS pp pp pp
-2.0000000000000000e+01 2.0000000000000000e+01
-2.0000000000000000e+01 2.0000000000000000e+01
-2.0000000000000000e+01 2.0000000000000000e+01
ITEM: ATOMS id mol type x y z ix iy iz vx vy vz c_quat[1] c_quat[2] c_quat[3] c_quat[4] angmomx angmomy angmomz
1 1 1 -6.110051057843966e-01 -6.570915382537516e-01  3.695351198016519e-01 0 0 0  6.134015413840999e-02 -1.891509644389206e-04  1.869776681037486e-01  9.961520595214152e-01 -4.269911690320463e-02  1.660420219852525e-03 -7.651864303307590e-02  2.463447866945204e-01 -1.767523328287525e-01 -2.691641785317933e-01
2 1 2 -4.541015334602148e-01 -9.923027192074869e-01  7.187937623007222e-01 0 0 0 -3.130966348676414e-02  2.642526550769416e-01 -1.543682057797483e-01  9.370469868933399e-01  1.091099156617210e-01  6.297907029596735e-02  3.256863634895705e-01 -2.228868068115360e-02 -1.197007132463797e-01  1.459282996493780e-02
3 1 3 -1.076107786975958e-01 -1.244807129978661e+00  1.068474390000806e+00 0 0 0 -2.312190578177311e-01 -1.155170037783840e-01  1.039487282869921e-02  8.028585013250752e-01  1.444878376708366e-01  1.781395432918990e-01  5.502797422502613e-01  8.880917766006445e-02 -1.426014204924904e-01 -1.802422230442985e-01
4 1 4  2.846105141872242e-01 -1.279767530752828e+00  1.426229726603155e+00 0 0 0 -2.183949164831328e-01 -5.254336708880362e-01 -1.576381845807952e-02  5.532726007845458e-01  1.498836383975898e-01  1.161933608812024e-01  8.111247912922747e-01 -2.610871695286061e-01  2.636428198714801e-01  3.557038859574081e-01
5 1 1  6.221928656890697e-01 -1.027294522369658e+00  1.763557483860891e+00 0 0 0 -1.628316059186855e-01 -2.173692704785791e-01 -1.330335355088230e-01  2.477634375827431e-01  1.172060143825843e-01  8.272736189607319e-02  9.581399755690437e-01  5.459964502953226e-02 -7.389032312081611e-02  1.185025000521937e-01
6 1 2  7.880065744921234e-01 -6.696633168988747e-01  2.160097796624428e+00 0 0 0 -6.045579929805689e-02  1.530232042314606e-01  1.574736032674647e-01 -4.360371153335380e-02  5.906614887921965e-02  2.002016375243863e-02  9.971003457227460e-01  6.988185957040112e-02 -5.070878335715756e-01  1.345943063820618e-01
7 1 3  7.131278495515733e-01 -4.031056435368476e-01  2.564674451884136e+00 0 0 0  2.594895801455658e-02 -1.780336734896343e-02 -1.013052285627869e-01 -4.509619151795027e-01  1.091780629990656e-01 -7.491764424768187e-02  8.826668953788767e-01  3.170492726713571e-01  3.631148680064979e-01 -1.294070090752779e-01
8 1 4  4.853993458865128e-01 -3.049495911237106e-01  3.072287041542151e+00 0 0 0  4.043952626407675e-01 -7.212775606018769e-02  1.109790734904195e-01  7.641308728189182e-01 -1.029269557744574e-02  4.127450717266316e-02 -6.436571173228817e-01  5.563313130239415e-02  1.030443297574100e-01 -1.275134599611757e-01
9 2 1  4.069279166313909e-01 -1.442152694512064e+00  3.058663204339781e+00 0 0 0  1.664969019288714e-02  3.998499640998310e-02 -3.247764014563245e-02 -2.325860355018846e-01  6.834380759932311e-01  6.800645701739043e-01 -1.277822865907842e-01  1.006203679636813e-02 -9.435370825073147e-03  1.663524491781139e-01
10 2 2 -2.395303231294939e-02 -1.289599528922262e+00  2.719246536823363e+00 0 0 0  2.087220620822784e-01  1.459375628016459e-01 -5.611752869685212e-04 -2.325988201247730e-01  8.840656122829955e-01  3.868891647384539e-01 -1.210064306689417e-01 -1.882041486554728e-01 -4.782216804660367e-01 -2.326401913187952e-01
11 2 3 -3.300140699485052e-01 -9.150479954867601e-01  2.426188666122619e+00 0 0 0 -3.410713644646239e-01 -1.410278570452200e-01  3.182111059549314e-01 -6.860516763208650e-02  9.808219175228003e-01  1.474315250834284e-01 -1.074506514295977e-01 -3.076457431224621e-01 -4.779371593742363e-01  2.006761260474129e-02
12 2 4 -3.939976930560879e-01 -4.793084366952114e-01  2.007478473280021e+00 0 0 0 -1.114834110729792e-01  1.424469338962907e-01  5.729148232282739e-02 -1.814236820883147e-02  9.643275752641349e-01 -2.413386210462506e-01 -1.072327004810750e-01 -2.601901480900669e-01  1.059184907318588e-01  9.441368697939433e-02
13 3 1 -6.753480843473132e-02 -7.613420088637748e-02  1.563807746685431e+00 0 0 0 -1.150567916697823e-01 -1.135079654394568e-01  9.113567646406649e-02 -1.622671202863872e-02  7.942720607588295e-01 -6.063172813227948e-01 -3.532621808228371e-02 -2.254735841852041e-01  2.741313782119943e-01  9.489304209468426e-02
14 3 2  1.809759084817966e-01 -7.006137874262888e-02  1.019185141745246e+00 0 0 0  5.328633606855601e-02 -3.759642954362235e-01 -3.780824839597747e-02  5.232024147207711e-02  6.394410155133203e-01 -7.669134503691791e-01  1.488420822341650e-02 -1.116201029569458e-01  3.774377862138133e-02  2.361503135674742e-01
15 3 3  4.428514756461893e-01 -2.289744285697631e-01  5.959439445925132e-01 0 0 0 -2.216999435135593e-01  2.126442315649898e-01  4.378212615417899e-04 -6.171969214793475e-02 -3.299550940513587e-01  9.419652721899811e-01  4.662778010848249e-03 -2.258299822726353e-01 -1.894064180204750e-02 -2.735707133352147e-01
16 3 4  4.998396991452418e-01 -5.592463098942185e-01  1.640988817128857e-01 0 0 0 -2.038078717228255e-01 -5.244352297289612e-02 -2.572706621430857e-02 -7.061561092722554e-02 -2.402096336975682e-03  9.951793890000873e-01 -6.801212491883955e-02  1.668347114075199e-02 -3.200562878633068e-01  7.474659922999773e-02
ITEM: TIMESTEP
5000
ITEM: NUMBER OF ATOMS
16
ITEM: BOX BOUNDS pp pp pp
-2.0000000000000000e+01 2.0000000000000000e+01
-2.0000000000000000e+01 2.0000000000000000e+01
-2.0000000000000000e+01 2.0000000000000000e+01
ITEM: ATOMS id mol type x y z ix iy iz vx vy vz c_quat[1] c_quat[2] c_quat[3] c_quat[4] angmomx angmomy angmomz
1 1 1 -6.103912783558497e-01 -6.571084792236898e-01  3.712908194906326e-01 0 0 0  6.129230191032645e-02 -3.021228993338473e-03  1.636591061027740e-01  9.960329051093828e-01 -3.963926973623604e-02  2.042447933377784e-04 -7.966893069575845e-02  2.630499121748078e-01 -1.394467971105508e-01 -2.685777741706177e-01
2 1 2 -4.543926369401697e-01 -9.896848337340816e-01  7.173366941364614e-01 0 0 0 -2.674889647804438e-02  2.590930539145233e-01 -1.364630100417888e-01  9.371227923163410e-01  1.084469986098301e-01  6.173036798604472e-02  3.259286459979411e-01 -1.338359582542742e-02 -1.274595557688851e-01  3.912455930612645e-03
3 1 3 -1.099530116912458e-01 -1.245937818961223e+00  1.068662426776174e+00 0 0 0 -2.372333444915039e-01 -1.106549632116633e-01  2.712101407349145e-02  8.041494472423351e-01  1.448534014404716e-01  1.757828064581807e-01  5.490551552846568e-01  1.173319891845623e-01 -1.608689242962686e-01 -1.849147425547317e-01
4 1 4  2.824541935964164e-01 -1.284968071696462e+00  1.426012515871180e+00 0 0 0 -2.128555139628290e-01 -5.145676640738376e-01 -2.762719492617750e-02  5.500652998612486e-01  1.501062166785375e-01  1.209859855990687e-01  8.125630319499112e-01 -2.810518306290858e-01  2.566051169983757e-01  3.558825324621723e-01
5 1 1  6.205658945330356e-01 -1.029446547881197e+00  1.762231069153275e+00 0 0 0 -1.625210205305216e-01 -2.129412013485831e-01 -1.322474893435682e-01  2.464684883807027e-01  1.164489548009197e-01  8.211456645761388e-02  9.586188622891701e-01  4.812017372104627e-02 -7.002581002324099e-02  1.166759057014952e-01
6 1 2  7.873844045048879e-01 -6.681959716425172e-01  2.161683291723958e+00 0 0 0 -6.399000840862577e-02  1.402647642815679e-01  1.595568156099730e-01 -4.511531749015285e-02  5.331498306181347e-02  1.959816231707973e-02  9.973655461979198e-01  6.340980657468474e-02 -4.849109944425659e-01  1.411969289614314e-01
7 1 3  7.133540125206161e-01 -4.032528245052484e-01  2.563716618151130e+00 0 0 0  1.926725460777233e-02 -1.156997979087099e-02 -9.021613811638277e-02 -4.497458705510946e-01  1.110344222568038e-01 -8.008357671764668e-02  8.826021922341032e-01  3.086400781091584e-01  3.445362814750347e-01 -1.262311989721507e-01
8 1 4  4.894728870145008e-01 -3.056990880795060e-01  3.073329881608943e+00 0 0 0  4.102625591427893e-01 -7.776714098798482e-02  9.757132602257186e-02  7.631417828432577e-01 -1.051225923842491e-02  4.265154543392888e-02 -6.447363471657356e-01  6.002141981861904e-02  1.099394745080427e-01 -1.277559148445121e-01
9 2 1  4.070539494052643e-01 -1.441753849880279e+00  3.058284105759015e+00 0 0 0  8.568988362661137e-03  3.979562721338091e-02 -4.330331757157763e-02 -2.323133026582433e-01  6.821293037793112e-01  6.814146884695292e-01 -1.280787440270482e-01  5.506065111858532e-03 -1.323476828867327e-02  1.671532965122429e-01
10 2 2 -2.185236749200756e-02 -1.288100434781247e+00  2.719298538495248e+00 0 0 0  2.113346816201786e-01  1.538177075584571e-01  1.104480612888328e-02 -2.288366384170608e-01  8.862109298776430e-01  3.856416393466708e-01 -1.163808690695987e-01 -1.924045027660539e-01 -4.814926095101796e-01 -2.116960543939218e-01