LAMMPS data file via write_data, version 19 Nov 2024, timestep = 100000, units = lj

1000 atoms
1 atom types
1000 ellipsoids

0 11.00642416298209 xlo xhi
0 11.00642416298209 ylo yhi
0 11.00642416298209 zlo zhi

Atoms # ellipsoid/kk

5 1 1 5.968310365946075 0.4711365285004231 0.4195280311739549 0.1559082946893895 0 0 0
9 1 1 5.968310365946075 1.994768819608038 0.2807013283569616 0.14542376117403255 0 0 0
17 1 1 5.968310365946075 4.236131693525414 0.7269637811285453 0.18263250912532766 0 0 0
30 1 1 5.968310365946075 8.116549705882097 0.5261900105299847 0.5659495078758562 0 0 0
38 1 1 5.968310365946075 10.292850259768363 0.6239384845314653 0.3644961296676152 0 0 0
42 1 1 5.968310365946075 0.028092547265188537 1.433433917466487 0.06980956960485707 0 0 0
23 1 1 5.968310365946075 5.401674124243603 0.9758938917526327 0.4873144931375753 0 0 0
27 1 1 5.968310365946075 6.7319605401826035 0.9835114756639303 0.475253859651649 0 0 0
35 1 1 5.968310365946075 8.721729334843024 1.238008000104051 10.940403854196123 0 0 -1
61 1 1 5.968310365946075 5.143176594961331 2.2367428042315405 0.2914241898241451 0 0 0
66 1 1 5.968310365946075 7.074200127725423 2.027167778150644 0.11818232723387144 0 0 0
39 1 1 5.968310365946075 9.736291982148758 1.5215526092751812 0.1184836395766864 0 0 0
49 1 1 5.968310365946075 1.6935976301179065 2.6456438575275043 0.042117963062434316 0 0 0
50 1 1 5.968310365946075 2.7259069981109563 2.5440415707368946 0.5292212133259199 0 0 0
57 1 1 5.968310365946075 3.952600172418547 2.1562826403650153 0.29376865885060305 0 0 0
32 1 1 5.968310365946075 8.063536326571214 2.2773242976981454 0.4935072523708901 0 0 0
279 1 1 5.968310365946075 9.48654617319021 2.8178895946067812 0.4563145746772457 0 0 0
77 1 1 5.968310365946075 10.626526889545637 2.447700602400541 0.22406107478882745 0 0 0
856 1 1 5.968310365946075 3.5518302322484243 3.2665021630118316 0.012514062186574807 0 0 1
63 1 1 5.968310365946075 5.214121330794963 3.2455787690097835 0.654281910999647 0 0 0
67 1 1 5.968310365946075 6.450613871783056 3.4633380236614313 0.35047051192121614 0 0 0
70 1 1 5.968310365946075 7.43165362990172 3.189280837323381 10.887265736671411 0 0 -1
74 1 1 5.968310365946075 8.505447686309138 3.3569434948759245 0.0050085471295344885 0 0 0
44 1 1 5.968310365946075 0.24698454879292514 3.598102733075978 0.6345760601632476 0 0 0
852 1 1 5.968310365946075 1.4325098568834767 3.7642349060451568 0.4401955669878339 0 0 1
98 1 1 5.968310365946075 4.545943906678255 4.104057206118065 0.6140534111554858 0 0 0
71 1 1 5.968310365946075 8.104261593727191 4.330137320865091 0.14188874308755325 0 0 0
85 1 1 5.968310365946075 1.1851357904021922 5.017790485054047 0.4910999046963493 0 0 0
51 1 1 5.968310365946075 2.4295510368182724 4.890443595866791 0.26824590362627276 0 0 0
97 1 1 5.968310365946075 3.5678615536414053 4.596334674564397 0.20509744952427866 0 0 0
105 1 1 5.968310365946075 5.557601797349825 4.391434961420268 0.23129176592854483 0 0 0
81 1 1 5.968310365946075 10.935305535590679 4.7202895518017 0.5760214719361466 -1 0 0
83 1 1 5.968310365946075 0.45950248093611823 5.8382144763876 0.03573013299108101 0 0 0
912 1 1 5.968310365946075 7.796987451699425 5.431554119355648 0.059539847525584895 0 0 1
113 1 1 5.968310365946075 8.911178172036303 5.152431469535759 0.0825015951840844 0 0 0
115 1 1 5.968310365946075 9.761239179461167 5.830732888571417 0.25196759709245026 0 0 0
89 1 1 5.968310365946075 2.619818358333724 5.972083752396388 0.1729770237376129 0 0 0
134 1 1 5.968310365946075 3.633855843721781 6.337479092388921 0.6936773992326815 0 0 0
99 1 1 5.968310365946075 4.561658978579044 6.459567555200347 0.17130727193240847 0 0 0
112 1 1 5.968310365946075 7.896263904127455 6.509098074162396 0.20448258350800586 0 0 0
88 1 1 5.968310365946075 0.6093265877660154 7.0341419734394925 0.4310094653145425 0 0 0
127 1 1 5.968310365946075 1.7406130050002948 7.026430995664651 0.24957097750741514 0 0 0
132 1 1 5.968310365946075 2.82691013606832 7.212278574702425 0.5033717213793109 0 0 0
153 1 1 5.968310365946075 9.189118210338815 6.921943456062749 0.43701531222803947 0 0 0
84 1 1 5.968310365946075 10.517199078018669 6.739595251525731 0.17662746272982055 -1 0 0
165 1 1 5.968310365946075 0.24481449291589324 8.088863789128228 0.15350746847683056 0 0 0
339 1 1 5.968310365946075 3.962030643053992 7.449155349718522 0.3484343192080519 0 0 0
139 1 1 5.968310365946075 5.030027548753793 7.500158351609459 0.5706521347191206 0 0 0
149 1 1 5.968310365946075 7.952795437943122 7.665876547455476 0.2940833847357785 0 0 0
159 1 1 5.968310365946075 9.9556981811071 7.726419811682046 0.6737776236681069 0 0 0
970 1 1 5.968310365946075 1.5702830354097048 8.342564224666093 0.10671967067981925 0 0 1
169 1 1 5.968310365946075 2.6827841949863456 8.648093809033266 0.2647514870603632 0 0 0
135 1 1 5.968310365946075 4.479097204284116 8.448403552608893 0.5622054565603495 0 0 0
181 1 1 5.968310365946075 5.777572151016672 8.135494630049882 0.048064928037429046 0 0 0
144 1 1 5.968310365946075 6.799582176836101 8.515169046755009 0.6552617972821895 0 0 0
148 1 1 5.968310365946075 8.34470133058965 8.735340672381831 0.43990553295009915 0 0 0
167 1 1 5.968310365946075 0.5881264860815875 9.061879732048881 0.3861623705957075 0 0 0
166 1 1 5.968310365946075 1.688673155264232 9.380700893301269 0.4199642231888386 0 0 0
176 1 1 5.968310365946075 3.4614995470869707 9.363184411218155 0.6399555881570663 0 0 0
190 1 1 5.968310365946075 7.456459312928073 9.424642537464795 0.36143566368527136 0 0 0
160 1 1 5.968310365946075 9.441476455799478 8.854248148911969 0.4458104389598193 0 0 0
163 1 1 5.968310365946075 0.1963211549362734 10.30525778423596 0.21115197313491094 0 0 0
175 1 1 5.968310365946075 2.6092738927958496 9.915192866480208 0.27868037786001 0 0 0
986 1 1 5.968310365946075 5.414173930296922 9.69882152822032 0.05247533502283979 0 0 1
194 1 1 5.968310365946075 8.645589308625935 9.82045159826989 0.7395717559991006 0 0 0
199 1 1 5.968310365946075 10.02539449774629 9.7934794185828 0.10228015183087308 0 0 0
968 1 1 5.968310365946075 1.3152130097684305 10.39706326266222 0.11034001238148014 0 0 1
179 1 1 5.968310365946075 3.4895960677950133 10.623501164893886 0.3893843380708954 0 0 0
984 1 1 5.968310365946075 4.552360549704284 10.411196833126803 0.29120311996587545 0 0 1
192 1 1 5.968310365946075 6.572434491476215 10.76406922110137 0.5805881612362002 0 0 0
8 1 1 5.968310365946075 1.3994482222152302 0.5715659418194846 1.0727162567731978 0 0 0
10 1 1 5.968310365946075 2.5403290297331877 0.5547867725760255 1.0915405464502632 0 0 0
20 1 1 5.968310365946075 3.6745321602730305 0.48729556733850915 1.183280019358681 0 0 0
184 1 1 5.968310365946075 4.82989890550957 0.23076212341782934 1.1190239837265883 0 1 0
26 1 1 5.968310365946075 6.214880619617183 0.5172618160306719 1.2815572974955902 0 0 0
2 1 1 5.968310365946075 0.1258865907007891 0.8370568469716246 1.3324404596838908 0 0 0
16 1 1 5.968310365946075 3.177548964040849 1.4909192449359316 0.781964297636401 0 0 0
19 1 1 5.968310365946075 4.423392048017234 1.4194463213461332 0.9981741016360777 0 0 0
36 1 1 5.968310365946075 9.31649661631735 0.7775285737541079 0.8476718509106048 0 0 0
45 1 1 5.968310365946075 0.865054745916683 1.5813746898155927 0.9114615986756521 0 0 0
11 1 1 5.968310365946075 1.9923788059778484 1.5342051436803505 0.9159150936450812 0 0 0
65 1 1 5.968310365946075 6.146652950023487 1.9221922536952152 0.697084920937135 0 0 0
28 1 1 5.968310365946075 7.524848237158559 1.540294884308457 1.1256499245467133 0 0 0
40 1 1 5.968310365946075 9.02284702274427 1.8626809364282606 1.1181082171109522 0 0 0
241 1 1 5.968310365946075 10.301825026813734 1.681983997158568 1.1428957837070175 -1 0 0
78 1 1 5.968310365946075 0.8534916157637525 2.6866430113544353 0.7895376321190735 1 0 0
54 1 1 5.968310365946075 3.6414634175179055 2.1497810515396165 1.5319030893273466 0 0 0
24 1 1 5.968310365946075 5.9758352834235025 2.670534122855894 1.4162191707847316 0 0 0
269 1 1 5.968310365946075 7.2687980897817575 2.769448596165735 1.1488120512289455 0 0 0
271 1 1 5.968310365946075 8.610604601630369 2.862600147184662 1.21609676193091 0 0 0
243 1 1 5.968310365946075 10.895322443533 2.6797898455053124 1.3250933912746088 -1 0 0
46 1 1 5.968310365946075 1.906604759402898 3.021062764239205 1.162487591059114 0 0 0
58 1 1 5.968310365946075 4.095482799699526 3.1546240748849357 1.0066213944765265 0 0 0
317 1 1 5.968310365946075 10.138861649755427 3.543678557559339 1.0203038794219532 0 0 0
52 1 1 5.968310365946075 1.3832884201005862 4.281460488506426 1.4500973028464346 0 0 0
90 1 1 5.968310365946075 2.514968674446725 4.05964248403293 0.9412638154466662 0 0 0
55 1 1 5.968310365946075 3.638743335153954 4.224331865079078 1.2617337343526305 0 0 0
62 1 1 5.968310365946075 5.934427867594967 3.8491753463210796 1.2538720864300466 0 0 0
72 1 1 5.968310365946075 7.421182353490938 3.8273146201377926 0.8654278089186337 0 0 0
76 1 1 5.968310365946075 9.093758687751501 3.870327437967461 0.7578491963836699 0 0 0
68 1 1 5.968310365946075 6.392788162300986 4.769626702114712 0.9294036742741 0 0 0
110 1 1 5.968310365946075 7.472006018082637 4.9475983078389385 1.0495621721262651 0 0 0
114 1 1 5.968310365946075 8.733751068434897 4.986693646034395 1.215039592640138 0 0 0
80 1 1 5.968310365946075 9.785357524417813 4.78315746779397 0.9043152472873759 0 0 0
86 1 1 5.968310365946075 0.5487972566415953 5.248787014525473 1.4231542759058664 0 0 0
92 1 1 5.968310365946075 1.9079364822555471 5.2336760338565265 1.294943514765673 0 0 0
94 1 1 5.968310365946075 3.12150830705749 5.479902995887135 1.1043718049596942 0 0 0
100 1 1 5.968310365946075 4.175402976466687 5.300894717287208 0.8131123788692126 0 0 0
102 1 1 5.968310365946075 5.28494662019385 5.259603487326795 0.9669316107176399 0 0 0
104 1 1 5.968310365946075 6.995870317768164 5.878464076240248 0.7766690853366512 0 0 0
82 1 1 5.968310365946075 10.655250278581372 5.717176896014896 0.9361499486223788 -1 0 0
122 1 1 5.968310365946075 0.40873012412751086 6.550532729738113 1.4297285659214882 0 0 0
87 1 1 5.968310365946075 1.2969796739684405 6.142408309019644 0.8097436491196135 0 0 0
130 1 1 5.968310365946075 2.305034932562256 6.329131322583291 1.1916590469382475 0 0 0
138 1 1 5.968310365946075 4.499807741489871 6.141298983646578 1.3042013881218824 0 0 0
142 1 1 5.968310365946075 5.563923699391314 6.451330584279581 1.1674786819977117 0 0 0
116 1 1 5.968310365946075 8.067528147477 5.861698933069088 1.1993994899763372 0 0 0
118 1 1 5.968310365946075 9.393874047063134 5.78151213437516 1.4936670299427608 0 0 0
146 1 1 5.968310365946075 6.901720263975604 6.925321804808197 0.8271634921961759 0 0 0
157 1 1 5.968310365946075 10.146161189323005 6.773270735983096 1.231144068074556 0 0 0
128 1 1 5.968310365946075 1.096867846269935 7.857160871726106 1.0261728313408602 0 0 0
331 1 1 5.968310365946075 2.2112177244667386 7.977709788406098 1.040341201029062 0 0 0
143 1 1 5.968310365946075 6.012894083021036 7.639334154581709 1.0660293531066005 0 0 0
152 1 1 5.968310365946075 8.86900884048335 7.841161613785687 0.9984722613934599 0 0 0
124 1 1 5.968310365946075 10.970293386318936 7.551156406424565 1.2015039885849583 -1 0 0
174 1 1 5.968310365946075 3.5151501000429692 8.367469058491126 1.1148136280133256 0 0 0
182 1 1 5.968310365946075 5.6910239743017135 8.763951983778284 1.0127499201390928 0 0 0
150 1 1 5.968310365946075 7.747642419558517 8.376197559033416 1.2571536813706845 0 0 0
162 1 1 5.968310365946075 10.471274872185083 8.799662549863845 0.8838572261018114 -1 0 0
180 1 1 5.968310365946075 4.744519959421348 9.432803082645524 0.9953873110594876 0 0 0
363 1 1 5.968310365946075 0.07718650711261982 9.755748401542082 1.3863650841263766 0 0 0
168 1 1 5.968310365946075 1.2126368673525874 9.677338076473914 1.421041671408971 0 0 0
14 1 1 5.968310365946075 2.8920054224815033 9.900073776905348 1.4548125955226192 0 -1 0
188 1 1 5.968310365946075 6.450428723517119 9.60923253049975 0.8559783716245931 0 0 0
198 1 1 5.968310365946075 9.665279238361519 9.658484219844219 1.1386032455698685 0 0 0
6 1 1 5.968310365946075 0.7620835031658968 10.626957293079222 1.0720485776797664 0 -1 0
171 1 1 5.968310365946075 1.9981761785819139 10.452157051974579 1.0554639265504144 0 0 0
18 1 1 5.968310365946075 3.93985868591648 10.365763779694154 1.3856748027466361 0 -1 0
183 1 1 5.968310365946075 5.517470003173764 10.285587048311303 1.1202910460511715 0 0 0
34 1 1 5.968310365946075 8.153134136918457 10.592782987009732 1.2647017295285772 0 -1 0
200 1 1 5.968310365946075 9.302481613927077 10.696931794146286 0.9534353037618157 0 0 0
164 1 1 5.968310365946075 10.411052749238854 10.646303384288846 0.9486810624138804 -1 0 0
207 1 1 5.968310365946075 0.7366565497195842 0.6780457402402204 2.270151841860387 0 0 0
213 1 1 5.968310365946075 2.9604610429879803 10.96950391480513 1.881676481215067 0 -1 0
219 1 1 5.968310365946075 4.304565799151346 0.4101398891173609 2.129364591770165 0 0 0
229 1 1 5.968310365946075 7.181069934379552 0.42739984024515393 1.8671686010332562 0 0 0
239 1 1 5.968310365946075 10.023038268971336 0.441462589239296 1.7096884706614879 0 0 0
215 1 1 5.968310365946075 3.186650594229636 1.1974544341477475 1.956319036645336 0 0 0
221 1 1 5.968310365946075 5.317623383271262 1.0249770359546653 1.85480056622241 0 0 0
233 1 1 5.968310365946075 8.31585268991379 1.0057969912348288 1.662123345152637 0 0 0
245 1 1 5.968310365946075 0.23573745454532807 1.7354651787915318 1.952776431057672 0 0 0
211 1 1 5.968310365946075 1.4098237878277322 2.182258165917751 1.6873730096390456 0 0 0
12 1 1 5.968310365946075 2.5420744735494 2.151126251631651 1.689167637912296 0 0 0
22 1 1 5.968310365946075 6.2681035861220336 1.7123485080529648 1.8857083790108682 0 0 0
273 1 1 5.968310365946075 8.267309668207355 2.1371723716118423 1.989359216178053 0 0 0
235 1 1 5.968310365946075 9.402463645104033 1.7193400774427352 2.182833551595317 0 0 0
223 1 1 5.968310365946075 4.879798589690342 2.274116869140142 1.5884363362442997 0 0 0
265 1 1 5.968310365946075 6.931713292587663 2.561706806797932 2.1777726551691443 0 0 0
277 1 1 5.968310365946075 9.89497044259069 2.6733794599788254 1.8523885092437384 0 0 0
48 1 1 5.968310365946075 0.9289313922059518 3.2153620037159962 1.9163604679798762 0 0 0
56 1 1 5.968310365946075 2.9324982197182927 3.1416462072769153 1.6986997155248154 0 0 0
60 1 1 5.968310365946075 3.9478123770507314 3.5933800449411826 2.1559898047663433 0 0 0
64 1 1 5.968310365946075 5.068257394415015 3.366277440885004 1.7858912892832988 0 0 0
267 1 1 5.968310365946075 7.26197601625176 3.5999542352205145 2.0677761976119955 0 0 0
275 1 1 5.968310365946075 9.196489810849252 3.665456244721835 1.8665081218613282 0 0 0
251 1 1 5.968310365946075 2.0912963267019156 3.7871230874516693 2.121252051055484 0 0 0
309 1 1 5.968310365946075 8.181966649816456 4.09480037181139 1.6568210647480694 0 0 0
293 1 1 5.968310365946075 2.661798680724471 4.66318985968495 1.8419394923135226 0 0 0
297 1 1 5.968310365946075 4.599607797694597 4.4344617646374065 1.6848652648025602 0 0 0
301 1 1 5.968310365946075 5.735306097416426 4.607711617851587 2.0590695835731636 0 0 0
305 1 1 5.968310365946075 6.862969276935599 4.649001933987042 2.0178122839461397 0 0 0
283 1 1 5.968310365946075 9.695076794875446 4.586582893840468 2.1807593450995677 -1 0 0
285 1 1 5.968310365946075 10.630722042709024 4.341449216884312 1.6315667590948584 -1 0 0
126 1 1 5.968310365946075 1.3148853180281466 5.880244343372766 2.09773213239519 0 0 0
96 1 1 5.968310365946075 2.501366299527317 5.782988100767299 2.1517544261294335 0 0 0
299 1 1 5.968310365946075 3.7710335991033928 5.338479435655579 2.16472920767455 0 0 0
303 1 1 5.968310365946075 4.964259828873136 5.430509452242847 2.040293679696916 0 0 0
307 1 1 5.968310365946075 6.157595222881174 5.654578897792612 1.701371762014989 0 0 0
136 1 1 5.968310365946075 3.409639451692639 6.344023279933813 1.8270595443420252 0 0 0
106 1 1 5.968310365946075 7.275408091478189 5.888132702803811 2.0374854081269502 0 0 0
120 1 1 5.968310365946075 10.571378038778036 5.971700070266767 2.04762711856542 0 0 0
333 1 1 5.968310365946075 1.4674048788756568 6.953281563470847 1.702970628127115 0 0 0
341 1 1 5.968310365946075 5.447123876857336 7.238638750664351 1.9449707150182107 0 0 0
345 1 1 5.968310365946075 6.486703267250698 6.781551479384351 1.8314873461615764 0 0 0
108 1 1 5.968310365946075 7.840427153244726 7.137553158835025 1.4483719216922786 0 0 0
154 1 1 5.968310365946075 8.940728037388197 6.8178290150580505 1.5079104866510062 0 0 0
327 1 1 5.968310365946075 0.7443962941334065 7.759353078863131 2.1587486453937426 0 0 0
332 1 1 5.968310365946075 2.2296841521580544 7.761166186202806 2.126194073966645 0 0 0
335 1 1 5.968310365946075 3.2668064722585863 7.407294069534345 1.6560040677246068 0 0 0
347 1 1 5.968310365946075 6.834611497078812 7.879961473051015 1.6962148737339682 0 0 0
355 1 1 5.968310365946075 8.847679803405205 7.810448404719482 2.0904805901287147 0 0 0
156 1 1 5.968310365946075 9.850770661970833 7.866956142824805 1.7475024456550672 0 0 0
361 1 1 5.968310365946075 0.465231352657878 8.724762555291823 1.4858325505694496 0 0 0
365 1 1 5.968310365946075 1.4062825350947494 8.737517478721239 2.0608548018426394 0 0 0
140 1 1 5.968310365946075 4.809889879882555 8.171176904887558 1.6947505492099064 0 0 0
343 1 1 5.968310365946075 5.902171603075007 8.29408051800505 2.068250543013597 0 0 0
359 1 1 5.968310365946075 9.126042249783852 8.8527910399454 1.6841168157345756 0 0 0
170 1 1 5.968310365946075 2.2896070951896745 8.989159175023328 1.4794971222036322 0 0 0
373 1 1 5.968310365946075 3.8666531754025177 9.429635279623938 1.9285567974708124 0 0 0
186 1 1 5.968310365946075 6.963189602830066 8.97621022281527 1.7851174002695849 0 0 0
351 1 1 5.968310365946075 7.920362396637384 9.503038637908096 1.4837145322662642 0 0 0
397 1 1 5.968310365946075 10.109951504713546 9.177088695009063 2.105583960467675 0 0 0
205 1 1 5.968310365946075 2.002363054971547 9.933085762211258 2.1418393488632317 0 -1 0
217 1 1 5.968310365946075 4.85785536283392 10.315364639907129 1.9744510956160664 0 -1 0
383 1 1 5.968310365946075 5.980413801302407 9.496484132019345 1.9298467340634329 0 0 0
196 1 1 5.968310365946075 8.929429063506154 10.080229887045208 2.1518871591908817 0 0 0
4 1 1 5.968310365946075 0.06203330302790843 10.770151551468572 1.9769708259009264 0 -1 0
172 1 1 5.968310365946075 1.5089904753439918 10.952014843783614 2.0550949102396014 0 0 0
225 1 1 5.968310365946075 6.758493166352825 10.392903334411594 1.716275263923264 0 -1 0
201 1 1 5.968310365946075 10.038180348761857 10.266629870325284 1.9838287251367714 -1 -1 0
216 1 1 5.968310365946075 3.460735126323581 0.39165417624877225 2.9183666587768498 0 0 0
395 1 1 5.968310365946075 7.869182965980369 0.34613748048567433 2.7471823603670122 0 1 0
237 1 1 5.968310365946075 9.000343702745752 0.2988751291992878 2.201386908154228 0 0 0
238 1 1 5.968310365946075 10.109556093449985 0.0316530907454975 2.7940473085163653 0 0 0
209 1 1 5.968310365946075 2.0443818820726767 1.0158711433791594 2.1502249282132317 0 0 0
266 1 1 5.968310365946075 6.480988084864313 0.860311804317468 2.7074027318709875 0 0 0
231 1 1 5.968310365946075 7.374169224778554 1.5100999372028197 2.22394170237653 0 0 0
236 1 1 5.968310365946075 8.605905942200698 1.2742519643934305 2.8113002903422517 0 0 0
203 1 1 5.968310365946075 10.47947764898675 1.0913187101714381 2.5785269760238667 -1 0 0
252 1 1 5.968310365946075 2.61810095199091 1.8410850176780849 2.7531847873672923 0 0 0
258 1 1 5.968310365946075 4.293194729564696 1.5172176543391134 2.2821506707040577 0 0 0
246 1 1 5.968310365946075 0.5221252966850819 2.4478122576911057 2.69531653018844 0 0 0
249 1 1 5.968310365946075 1.8605011428682992 2.7986919045917227 2.5468632416593096 0 0 0
253 1 1 5.968310365946075 3.569250831786727 2.447011807013999 2.5715848550130627 0 0 0
261 1 1 5.968310365946075 5.530629820731329 2.5571085639249134 2.4094567037294254 0 0 0
278 1 1 5.968310365946075 9.095371386912602 2.8417583714512005 2.9008708245239974 0 0 0
242 1 1 5.968310365946075 10.383047013787571 2.2114251972090995 2.7282964272770065 -1 0 0
259 1 1 5.968310365946075 4.815367035375605 3.5504897224097953 2.90817888594384 0 0 0
263 1 1 5.968310365946075 6.192362678978129 3.421675667057822 2.3127731128807545 0 0 0
270 1 1 5.968310365946075 8.2104992606408 3.195129822026215 2.3092166506717176 0 0 0
280 1 1 5.968310365946075 9.833249206024348 3.7035541707162256 2.820706236758984 0 0 0
281 1 1 5.968310365946075 10.673853378026504 3.4036513883568977 2.2000821558883445 -1 0 0
286 1 1 5.968310365946075 0.6542407173527754 4.259407849502782 2.4546838181479687 0 0 0
255 1 1 5.968310365946075 3.0502433930972184 3.872526732547723 2.8142473391561635 0 0 0
289 1 1 5.968310365946075 1.8171732808258156 4.954345432507118 2.499062934105365 0 0 0
294 1 1 5.968310365946075 4.101649586892085 4.402197189148401 2.787316100941339 0 0 0
312 1 1 5.968310365946075 7.88531801615072 4.981232413220238 2.3077132773840043 0 0 0
318 1 1 5.968310365946075 10.574451665127647 4.533260628044437 2.7475225449916403 0 0 0
287 1 1 5.968310365946075 0.3886669776107199 5.31067817876644 2.47024738141807 0 0 0
315 1 1 5.968310365946075 8.965681794512399 5.366451448352625 2.5171500360220227 0 0 0
319 1 1 5.968310365946075 10.047442258772682 5.514277442074501 2.97076197860528 0 0 0
298 1 1 5.968310365946075 4.393551504875514 6.314064113121123 2.420603201301937 0 0 0
338 1 1 5.968310365946075 5.7114033512284905 6.309420545578037 2.492380389213143 0 0 0
311 1 1 5.968310365946075 8.225618529631584 6.4632628293881345 2.258436093548993 0 0 0
353 1 1 5.968310365946075 9.596155717333982 6.4759029563255055 2.4378696340042656 0 0 0
321 1 1 5.968310365946075 0.6477457044443327 6.71321013124677 2.502248621841493 0 0 0
291 1 1 5.968310365946075 2.175872721019959 6.733879885078819 2.6557693172639407 0 0 0
158 1 1 5.968310365946075 10.555411930023036 7.146880223981426 2.2348003012722137 0 0 0
336 1 1 5.968310365946075 3.2335525586901053 7.435253288442675 2.8001354159647267 0 0 0
337 1 1 5.968310365946075 4.285613042987986 7.385156190396438 2.294982458424407 0 0 0
348 1 1 5.968310365946075 6.2170396178218486 7.464700302385967 2.849241061694937 0 0 0
349 1 1 5.968310365946075 7.673824625931808 7.389712589719787 2.6316936062121474 0 0 0
328 1 1 5.968310365946075 1.4280416238166584 8.090251547908775 3.029097760936584 0 0 0
369 1 1 5.968310365946075 2.3642359677801976 8.802100967711414 2.6900347694309557 0 0 0
377 1 1 5.968310365946075 3.7430923749005993 8.398189591259552 2.238243735702168 0 0 0
340 1 1 5.968310365946075 4.944957614649831 8.157064166089487 2.8149985932979553 0 0 0
385 1 1 5.968310365946075 6.890666091414439 8.441398455502759 2.7837593942185697 0 0 0
389 1 1 5.968310365946075 7.963353122846734 8.504090463589634 2.407883964549536 0 0 0
393 1 1 5.968310365946075 9.211365290306032 8.76282397798958 2.7825624378826825 0 0 0
323 1 1 5.968310365946075 10.695783539288536 8.249715517208502 2.286892508270971 -1 0 0
367 1 1 5.968310365946075 0.28949796447773785 9.134434252140316 2.4734961871360954 0 0 0
178 1 1 5.968310365946075 4.919143303133474 9.295110051586368 2.419967540136547 0 0 0
364 1 1 5.968310365946075 0.8617892929315397 10.164137696021102 2.5948357178077566 0 0 0
375 1 1 5.968310365946075 2.9260777788187733 9.700571571228638 2.6453973842277905 0 0 0
387 1 1 5.968310365946075 7.010902921654811 9.643127132204809 2.6584650571592268 0 0 0
214 1 1 5.968310365946075 2.3609627929633694 10.816742911336158 2.8509575117500394 0 -1 0
218 1 1 5.968310365946075 3.9067037515795957 10.389207042159633 2.616480699142645 0 -1 0
227 1 1 5.968310365946075 5.797646315775775 0.1305599063601139 2.284641071701072 0 0 0
230 1 1 5.968310365946075 6.824826464771272 10.748142502965624 2.8125065960211586 0 -1 0
391 1 1 5.968310365946075 7.852818214356887 10.334646983937748 2.283086691360835 0 0 0
202 1 1 5.968310365946075 0.22297917949310248 0.07007767395470772 3.0217966182311993 0 0 0
210 1 1 5.968310365946075 1.5203607823736542 0.5196210236302223 3.021718636484925 0 0 0
222 1 1 5.968310365946075 4.482272126707328 0.604091707797692 3.4205031742546055 0 0 0
228 1 1 5.968310365946075 5.7678665243564735 0.4830858540917012 3.353310995485769 0 0 0
435 1 1 5.968310365946075 9.341830588855272 0.4617256444843259 3.5471545997621723 0 0 0
206 1 1 5.968310365946075 0.3962130592818179 1.280076472942927 3.14209956168738 0 0 0
212 1 1 5.968310365946075 2.566134324275919 0.8757105160334637 3.3637257396570086 0 0 0
224 1 1 5.968310365946075 5.183808326995867 1.3732790652968028 2.956069255422719 0 0 0
437 1 1 5.968310365946075 10.48179435665987 0.7243199004423292 3.621555937494417 0 0 0
208 1 1 5.968310365946075 1.4912334672582255 1.8238356764460615 3.0534130675185924 0 0 0
254 1 1 5.968310365946075 3.584631431677191 1.489069848218997 3.233552571043759 0 0 0
268 1 1 5.968310365946075 6.251520583493213 2.0677531276311294 3.1781993468200582 0 0 0
232 1 1 5.968310365946075 7.413212630588147 1.4974529010635689 3.382232023780107 0 0 0
240 1 1 5.968310365946075 9.552475443055293 1.565568829595827 3.331308473396631 0 0 0
451 1 1 5.968310365946075 1.684440022143347 2.662700386578352 3.706942431350506 0 0 0
256 1 1 5.968310365946075 2.745443465422213 2.9031420805085704 3.2692024412741203 0 0 0
257 1 1 5.968310365946075 4.6398792953868195 2.37232057438716 3.117938658795191 0 0 0
274 1 1 5.968310365946075 8.079831071964557 2.382661621606996 3.0366525073628434 0 0 0
247 1 1 5.968310365946075 1.0098748763797842 3.489412574128352 3.139735125419968 0 0 0
260 1 1 5.968310365946075 3.852462869215359 3.3043950752651283 3.3605987504181183 0 0 0
262 1 1 5.968310365946075 5.666738567460764 3.1052108440551893 3.427049368281603 0 0 0
505 1 1 5.968310365946075 7.094001434535119 3.062300803349338 3.132281822114352 0 0 0
244 1 1 5.968310365946075 10.92301353057671 3.1007054501756763 3.407498488625043 -1 0 0
282 1 1 5.968310365946075 0.29254723267787774 4.298959370079363 3.5741493811458436 0 0 0
290 1 1 5.968310365946075 2.099970013741192 4.109692176578781 3.2513642183430087 0 0 0
497 1 1 5.968310365946075 5.250051640198346 4.389892867558632 3.4926402501957976 0 0 0
264 1 1 5.968310365946075 6.366698478490097 4.110207483395621 3.2706617689602173 0 0 0
306 1 1 5.968310365946075 7.534605541838838 4.2758059033618485 3.085262444821782 0 0 0
313 1 1 5.968310365946075 8.628703136283677 4.340207858135071 2.792548403246273 0 0 0
288 1 1 5.968310365946075 1.283464091023074 4.83816971686891 3.4586706969089493 0 0 0
296 1 1 5.968310365946075 3.0358347855869194 5.007686996035706 2.9610430616921555 0 0 0
316 1 1 5.968310365946075 8.667115685118521 5.142478214306908 3.600533318786176 0 0 0
314 1 1 5.968310365946075 9.607519633336928 4.590043441551815 3.4248020532856054 0 0 0
292 1 1 5.968310365946075 2.2334308327431285 5.676779688733511 3.235407908985446 0 0 0
495 1 1 5.968310365946075 4.135560091358606 5.401333732136531 3.2696859841671815 0 0 0
501 1 1 5.968310365946075 5.631810639639615 5.286370744043912 2.944047477681335 0 0 0
302 1 1 5.968310365946075 6.783407449560427 5.166808095494989 3.091376859549462 0 0 0
308 1 1 5.968310365946075 7.762086167306767 5.921104920022544 3.1537116625192105 0 0 0
284 1 1 5.968310365946075 0.01989826661289129 5.6941573067701645 3.5701768796924576 0 0 0
325 1 1 5.968310365946075 1.077637891987759 5.870113417148837 3.229514183344471 0 0 0
295 1 1 5.968310365946075 3.2617341551136634 6.32787989067332 2.9605939378509807 0 0 0
499 1 1 5.968310365946075 5.032690450418651 6.0123512174600515 3.5042408354606964 0 0 0
346 1 1 5.968310365946075 6.776343253437656 6.4638594358682155 3.0409295342506 0 0 0
354 1 1 5.968310365946075 8.886829510645592 6.209463068318329 3.2457238543568296 0 0 0
357 1 1 5.968310365946075 10.207618083158552 6.584771257668352 3.3430915278354374 0 0 0
322 1 1 5.968310365946075 1.3546509881388384 6.946078704977696 3.6010172147291435 0 0 0
537 1 1 5.968310365946075 5.043202532865877 7.0344562633606875 3.049451472079178 0 0 0
350 1 1 5.968310365946075 7.770100614238942 6.891233210191332 3.5903789114417144 0 0 0
356 1 1 5.968310365946075 8.694448059392528 7.319683481114918 3.1595817706600755 0 0 0
324 1 1 5.968310365946075 0.35517001585331937 7.665175764976811 3.1631514381168757 0 0 0
334 1 1 5.968310365946075 4.095435429754452 7.578220857965745 3.5032990865372393 0 0 0
539 1 1 5.968310365946075 5.7225898183709845 7.87278973839927 3.716772345623015 0 0 0
360 1 1 5.968310365946075 9.731336113615816 7.804864644151264 2.998512897531681 0 0 0
362 1 1 5.968310365946075 0.5810241852656074 8.724685013310365 3.487036766295622 0 0 0
370 1 1 5.968310365946075 3.350043018899424 8.409390117269451 3.3593956267454974 0 0 0
352 1 1 5.968310365946075 8.27103175488863 8.343214405508544 3.435651478009968 0 0 0
398 1 1 5.968310365946075 10.448657182495607 8.71644389025224 3.3855905889218016 0 0 0
366 1 1 5.968310365946075 1.415468344136711 9.321355004635333 3.0999451635031465 0 0 0
376 1 1 5.968310365946075 3.8305499254643176 9.452450700254508 3.5363788931092457 0 0 0
384 1 1 5.968310365946075 5.093503372522015 9.644631213505942 3.5703772861646144 0 0 0
381 1 1 5.968310365946075 5.9569354378395465 8.816741488152454 3.142132116089489 0 0 0
390 1 1 5.968310365946075 8.061783612655377 9.476275808204754 2.9829813772984477 0 0 0
226 1 1 5.968310365946075 5.955382527611389 10.079653673765211 2.9610396940744628 0 -1 0
399 1 1 5.968310365946075 9.691244948155308 9.807011034507969 2.957441905533539 0 0 0
400 1 1 5.968310365946075 10.846071095243365 10.039265997058408 2.973801286108562 0 0 0
368 1 1 5.968310365946075 1.5419963227838636 10.231546411652927 3.678826124579086 0 0 0
413 1 1 5.968310365946075 3.1847644837394387 10.428498439145608 3.476211420807153 0 -1 0
379 1 1 5.968310365946075 4.991479942922208 10.618812919384489 2.985055474903199 0 0 0
234 1 1 5.968310365946075 8.631399051510707 10.65704267322986 3.11274435536299 0 -1 0
407 1 1 5.968310365946075 0.5526519407179162 0.4355619968235892 4.332025781906051 0 0 0