LAMMPS (19 Nov 2024 - Development - patch_19Nov2024-564-gf96768effb-modified)
KOKKOS mode with Kokkos version 4.5.1 is enabled (src/KOKKOS/kokkos.cpp:72)
  using 1 OpenMP thread(s) per MPI task
package kokkos
package kokkos comm no
###
# Box and units  (use LJ units and periodic boundaries)
###

units           lj
atom_style      ellipsoid
dimension	3
boundary	p p p

lattice		sc 0.75
Lattice spacing in x,y,z = 1.1006424 1.1006424 1.1006424
region		box block 0 10 0 10 0 10
create_box	1 box
Created orthogonal box = (0 0 0) to (11.006424 11.006424 11.006424)
  1 by 1 by 1 MPI processor grid
create_atoms	1 box
Created 1000 atoms
  using lattice units in orthogonal box = (0 0 0) to (11.006424 11.006424 11.006424)
  create_atoms CPU = 0.060 seconds

group           all type 1
1000 atoms in group all
set             type 1 mass 1.0
Setting atom values ...
  1000 settings made for mass
set             type 1 shape 1.0 0.4 0.8
Setting atom values ...
  1000 settings made for shape
set             type 1 quat/random 29898
Setting atom values ...
  1000 settings made for quat/random

velocity 	all create 0.1 87287 loop geom

neighbor        0.3 bin
neigh_modify    delay 0 every 100 check yes

###################################################################
# Pair interaction between non-bonded atoms
#
#  Lennard-Jones 12-6 potential with cutoff:
#  potential E=4epsilon[ (sigma/r)^12 - (sigma/r)^6]  for r<r_cut
#
#  1.12246152962189 = 2^(1/6) is the minimum of the potential

pair_style      lj/cut 1.12246152962189

#
#  pair_coeff for lj/cut, specify 4:
#    * atom type interacting with
#    * atom type
#    * epsilon (energy units)
#    * sigma (distance units)
#

pair_coeff      1 1 1.0 1.1

#
#  pair_modify shift yes adds a constant to the potential such
#  that E(r_cut)=0. Forces remains unchanged.
#

pair_modify     shift yes

###################################################
reset_atoms 	id sort yes
Resetting atom IDs ...
Generated 0 of 0 mixed pair_coeff terms from geometric mixing rule
Neighbor list info ...
  update: every = 100 steps, delay = 0 steps, check = yes
  max neighbors/atom: 2000, page size: 100000
  master list distance cutoff = 1.4224615
  ghost atom cutoff = 1.4224615
  binsize = 0.71123076, bins = 16 16 16
  1 neighbor lists, perpetual/occasional/extra = 1 0 0
  (1) pair lj/cut/kk, perpetual
      attributes: half, newton on, kokkos_device
      pair build: half/bin/newton/kk/device
      stencil: half/bin/3d
      bin: kk/device

comm_modify cutoff 6
#comm_style tiled
#balance 1.2 rcb

###
# Set up fixes
###

fix 1 all   nve   ###NVE ensemble
#fix 2 all   langevin   1.0 1.0   2.0   424242   ###Langevin integrator Tstart Tstop 1/friction rndseed

compute ekin all ke
compute epot all pe
variable ekin equal c_ekin
variable epot equal c_epot
variable etot equal c_ekin+c_epot

fix 3 all print 5000 "$(step)  ekin = ${ekin} | epot = ${epot} | etot = ${etot}" screen yes

compute q all property/atom quatw quati quatj quatk
compute diameter all property/atom shapex shapey shapez
dump 1 all custom 5000 dump.polymer id type x y z c_q[1] c_q[2] c_q[3] c_q[4] c_diameter[1] c_diameter[2] c_diameter[3]
dump_modify 1 colname c_q[1] quatw colname c_q[2] quati colname c_q[3] quatj colname c_q[4] quatk

###################################################

timestep 0.0001 #0.012

run 100000
Generated 0 of 0 mixed pair_coeff terms from geometric mixing rule
0  ekin = 149.85 | epot = 1172.24162402921 | etot = 1322.09162402921
Per MPI rank memory allocation (min/avg/max) = 6.826 | 6.826 | 6.826 Mbytes
   Step          Temp          E_pair         E_mol          TotEng         Press     
         0   0.1            1.1722416      0              1.3220916      17.886531    
5000  ekin = 816.687874204732 | epot = 505.420367013681 | etot = 1322.10824121841
10000  ekin = 837.502255868369 | epot = 484.554538412796 | etot = 1322.05679428116
15000  ekin = 852.573102713566 | epot = 469.541500407442 | etot = 1322.11460312101
20000  ekin = 859.74485566665 | epot = 462.331602408267 | etot = 1322.07645807492
25000  ekin = 863.644390965255 | epot = 458.398585983742 | etot = 1322.042976949
30000  ekin = 888.522421369742 | epot = 433.540804444634 | etot = 1322.06322581438
35000  ekin = 845.347091110381 | epot = 476.657706212446 | etot = 1322.00479732283
40000  ekin = 883.978258134434 | epot = 437.913369351327 | etot = 1321.89162748576
45000  ekin = 875.291765825816 | epot = 446.589792049043 | etot = 1321.88155787486
50000  ekin = 837.08440014677 | epot = 484.899804074455 | etot = 1321.98420422122
55000  ekin = 852.897555377511 | epot = 469.031147260035 | etot = 1321.92870263755
60000  ekin = 850.220358633131 | epot = 471.655949355937 | etot = 1321.87630798907
65000  ekin = 867.916171287373 | epot = 453.969206486905 | etot = 1321.88537777428
70000  ekin = 839.590996696988 | epot = 482.311240208529 | etot = 1321.90223690552
75000  ekin = 861.596373062795 | epot = 460.385659356256 | etot = 1321.98203241905
80000  ekin = 887.369865230437 | epot = 434.571623822125 | etot = 1321.94148905256
85000  ekin = 885.404958853432 | epot = 436.701162542621 | etot = 1322.10612139605
90000  ekin = 888.053258576005 | epot = 434.018133794657 | etot = 1322.07139237066
95000  ekin = 860.411255041812 | epot = 461.791132128142 | etot = 1322.20238716995
100000  ekin = 839.484385587046 | epot = 482.725873755292 | etot = 1322.21025934234
    100000   0.56021647     0.48272587     0              1.3222103      6.3286949    
Loop time of 442.314 on 1 procs for 100000 steps with 1000 atoms

Performance: 1953.362 tau/day, 226.084 timesteps/s, 226.084 katom-step/s
99.9% CPU use with 1 MPI tasks x 1 OpenMP threads

MPI task timing breakdown:
Section |  min time  |  avg time  |  max time  |%varavg| %total
---------------------------------------------------------------
Pair    | 77.67      | 77.67      | 77.67      |   0.0 | 17.56
Neigh   | 1.0912     | 1.0912     | 1.0912     |   0.0 |  0.25
Comm    | 251.43     | 251.43     | 251.43     |   0.0 | 56.84
Output  | 1.3725     | 1.3725     | 1.3725     |   0.0 |  0.31
Modify  | 74.232     | 74.232     | 74.232     |   0.0 | 16.78
Other   |            | 36.52      |            |       |  8.26

Nlocal:           1000 ave        1000 max        1000 min
Histogram: 1 0 0 0 0 0 0 0 0 0
Nghost:           8086 ave        8086 max        8086 min
Histogram: 1 0 0 0 0 0 0 0 0 0
Neighs:           5124 ave        5124 max        5124 min
Histogram: 1 0 0 0 0 0 0 0 0 0

Total # of neighbors = 5124
Ave neighs/atom = 5.124
Neighbor list builds = 179
Dangerous builds = 0

write_data data_out.* nocoeff
System init for write_data ...
Generated 0 of 0 mixed pair_coeff terms from geometric mixing rule
Total wall time: 0:07:24
