LAMMPS data file via write_data, version 29 Aug 2024, timestep = 20000, units = lj

100 atoms
1 atom types
100 ellipsoids

0 5.503212081491045 xlo xhi
0 5.503212081491045 ylo yhi
0 4.402569665192836 zlo zhi

Atoms # ellipsoid/kk

5 1 1 14.92077591486519 1.2131987230659005 0.004192693875165062 0.31437882817447016 0 0 0
11 1 1 14.92077591486519 2.0954987439280095 0.7862760777529657 0.21258163321168505 0 0 0
13 1 1 14.92077591486519 3.5025528135612993 0.24484347419383262 0.08955866469924266 0 0 0
17 1 1 14.92077591486519 4.823538071954097 0.09694239928633484 0.12226866565682927 0 0 0
15 1 1 14.92077591486519 3.2252383590712164 1.346375648264493 0.14737794971478593 0 0 0
4 1 1 14.92077591486519 5.377033104196065 1.3607967634271931 0.5688338620995016 -1 0 0
23 1 1 14.92077591486519 1.2995959392728502 2.2107536813902677 0.5497840085459713 0 0 0
21 1 1 14.92077591486519 0.09626195287075211 2.396074492018295 0.13985562115771752 0 0 0
28 1 1 14.92077591486519 3.5114043110811655 2.4586910469226564 0.6700783579464098 0 0 0
31 1 1 14.92077591486519 0.1311224497027327 3.414304993273591 0.4797599905491485 0 0 0
35 1 1 14.92077591486519 1.1977411314238835 3.522214409086344 0.1743597876585781 0 0 0
43 1 1 14.92077591486519 3.6497692016507877 3.468169213810195 0.42192918878568286 0 0 0
46 1 1 14.92077591486519 3.2032859920046604 4.489427410360034 0.7262056021871203 0 0 0
34 1 1 14.92077591486519 5.333834618290723 4.567236103220572 0.6569237828436911 -1 0 0
9 1 1 14.92077591486519 2.494860134270559 5.202193566796589 0.1802142850145562 0 -1 0
49 1 1 14.92077591486519 4.159369177277779 4.707778632605726 0.18119229648178678 0 0 0
2 1 1 14.92077591486519 0.23924060205918873 0.19881972872439704 1.037280188860437 0 0 0
10 1 1 14.92077591486519 2.484142279129206 0.10017277511890953 1.1544159015917934 0 0 0
20 1 1 14.92077591486519 4.711720815630797 0.64755471981636 1.1044810939236418 0 0 0
8 1 1 14.92077591486519 1.2303705341667537 0.9774359330529442 0.8383660217548244 0 0 0
12 1 1 14.92077591486519 2.3529761305163768 1.1765609974363587 1.2784065606987123 0 0 0
16 1 1 14.92077591486519 3.4184385415214193 0.8691775341458604 1.254539379122454 0 0 0
26 1 1 14.92077591486519 2.431759826467079 2.2066153268053847 0.8706044492363382 0 0 0
30 1 1 14.92077591486519 4.442314442304226 1.9080125758034083 0.8637863018902286 0 0 0
22 1 1 14.92077591486519 5.463654669238859 2.256550053264321 1.2262542820413682 -1 0 0
36 1 1 14.92077591486519 1.4227410383174472 3.0822335073752143 1.2094313380637416 0 0 0
48 1 1 14.92077591486519 4.659010896312495 2.957896561369875 0.8893533304692379 0 0 0
40 1 1 14.92077591486519 2.543935863911017 3.2704461344176123 0.8508414417777564 0 0 0
38 1 1 14.92077591486519 0.9823008712290614 4.132296033148962 1.2039251279066108 0 0 0
42 1 1 14.92077591486519 2.1409597830674634 4.482147009078701 0.9994121369159368 0 0 0
50 1 1 14.92077591486519 4.394423600733623 4.0276629313251355 1.1134859628970017 0 0 0
6 1 1 14.92077591486519 1.2588341408386923 5.173594076625954 1.3653633188306338 0 -1 0
14 1 1 14.92077591486519 3.8732208399119075 5.227124623469761 1.2293146505693648 0 -1 0
69 1 1 14.92077591486519 4.2714924599948665 0.48749635060786595 2.153173214680918 0 0 0
53 1 1 14.92077591486519 0.27910942645174175 1.1554570909094866 1.704134211792618 0 0 0
57 1 1 14.92077591486519 1.5641080813057744 0.9480292353776176 1.991724014069537 0 0 0
24 1 1 14.92077591486519 1.1146266062146055 1.9328686251366127 1.6315097353345747 0 0 0
77 1 1 14.92077591486519 3.2294470543930496 2.1756549274823005 1.7947159461630782 0 0 0
79 1 1 14.92077591486519 4.261142157326937 1.5699448528672104 1.8809502158604774 0 0 0
75 1 1 14.92077591486519 1.9595856283286222 2.748241844847108 2.15842975245807 0 0 0
97 1 1 14.92077591486519 4.43437037923582 2.6642204489997368 1.8840444463370942 0 0 0
32 1 1 14.92077591486519 0.061287103489229715 3.3018638888725436 1.6007542187708896 0 0 0
89 1 1 14.92077591486519 2.503495020850656 3.6718489264386203 1.8807299772406423 0 0 0
44 1 1 14.92077591486519 3.5152752077959315 3.2264054496542363 1.5199989312020792 0 0 0
91 1 1 14.92077591486519 2.0328882951536587 4.677238250536522 2.105644630074891 0 0 0
95 1 1 14.92077591486519 3.276707006585552 4.468806564858774 1.9268979527883656 0 0 0
83 1 1 14.92077591486519 5.184480424843448 4.283654547102438 2.047815389233788 -1 0 0
18 1 1 14.92077591486519 4.921418781433527 5.145268833372078 1.5257997050507137 0 -1 0
59 1 1 14.92077591486519 2.0124562517926106 0.2160850854151792 2.6720003095956866 0 0 0
51 1 1 14.92077591486519 5.406106292725409 0.2407556218866481 2.281985483826587 -1 0 0
58 1 1 14.92077591486519 0.5789095399759521 0.9791167314455022 2.7730861464830743 0 0 0
65 1 1 14.92077591486519 3.356315322508407 1.124331685582238 2.4152042949023187 0 0 0
54 1 1 14.92077591486519 4.974026013226704 1.216754094125103 2.5904391434158254 -1 0 0
73 1 1 14.92077591486519 1.1470330205649033 1.8836126272582112 2.7111296466169876 0 0 0
61 1 1 14.92077591486519 2.2668643026817814 1.6540093575961883 2.442429030257168 0 0 0
78 1 1 14.92077591486519 3.188032883131963 2.14661272994054 2.8805338628386323 0 0 0
71 1 1 14.92077591486519 5.468589420256584 2.1979998045642004 2.366306854798475 -1 0 0
85 1 1 14.92077591486519 0.8088875200458979 2.89206181230072 2.2612712207012198 0 0 0
98 1 1 14.92077591486519 4.37194477369749 3.0252280989426437 2.9112359987807253 0 0 0
93 1 1 14.92077591486519 3.3204260899052276 3.2310552288629943 2.6354792401555796 0 0 0
99 1 1 14.92077591486519 4.174206059698249 3.857383799787103 2.1964520831833285 0 0 0
87 1 1 14.92077591486519 0.9011246885840872 4.162436322945804 2.262026139757776 0 0 0
55 1 1 14.92077591486519 0.8754180577114251 5.333558579978744 2.338930638384235 0 -1 0
63 1 1 14.92077591486519 3.2839531470611325 5.463432408818492 2.4839072287049007 0 -1 0
67 1 1 14.92077591486519 4.534480114375171 4.957039309144883 2.616167156370548 0 -1 0
64 1 1 14.92077591486519 2.9376542645352393 0.14954710320559794 3.523965404843242 0 0 0
52 1 1 14.92077591486519 5.166981008628506 0.20162191225219428 3.4673731325864794 -1 0 0
62 1 1 14.92077591486519 1.5918155133443628 1.1768750139276487 3.5442405153757184 0 0 0
66 1 1 14.92077591486519 2.696290245601429 1.1581789061292078 3.289705010716436 0 0 0
70 1 1 14.92077591486519 3.856499551668767 0.8600787758599653 3.396343138462283 0 0 0
3 1 1 14.92077591486519 5.360177165859254 1.418653603008639 3.6128576661477783 -1 0 -1
80 1 1 14.92077591486519 4.294066627178838 1.9386964396079114 3.13205972868284 0 0 0
76 1 1 14.92077591486519 2.1011087969437523 2.4733776696450875 3.204423932329328 0 0 0
72 1 1 14.92077591486519 5.473796748624513 2.5208139565960095 3.443191053868062 -1 0 0
86 1 1 14.92077591486519 1.183382035663767 3.505196393002046 3.1346773190915673 0 0 0
90 1 1 14.92077591486519 2.3136451548061694 3.5894023477087185 3.045757377434608 0 0 0
81 1 1 14.92077591486519 5.356966723631538 3.4914323101927067 2.8757717180357782 -1 0 0
84 1 1 14.92077591486519 0.20128018775003234 4.643052611986153 2.973492346284542 0 0 0
88 1 1 14.92077591486519 1.335105300025782 4.563226247172886 3.202137066702991 0 0 0
96 1 1 14.92077591486519 3.5053837966941774 4.521974916949989 3.0141336017888736 0 0 0
100 1 1 14.92077591486519 4.45243587892003 4.075469472782148 3.247562663313911 0 0 0
56 1 1 14.92077591486519 0.7203953312752677 5.464081596133302 3.500725066794284 0 -1 0
92 1 1 14.92077591486519 2.422927807687166 4.739672399654564 3.157563935114855 0 0 0
68 1 1 14.92077591486519 4.13456632123126 5.3131161756504515 3.6385810654814468 0 -1 0
1 1 1 14.92077591486519 0.3163784450431851 0.4685706481437107 4.374661383992104 0 0 -1
60 1 1 14.92077591486519 1.7697972677712879 0.02950704221569854 3.8058471265412748 0 0 0
7 1 1 14.92077591486519 0.7173335140697588 1.5062700403615852 4.2796505606990936 0 0 -1
19 1 1 14.92077591486519 4.368924978677762 1.146056292443932 4.3254362601330465 0 0 -1
25 1 1 14.92077591486519 2.2824098771145405 1.9288684740497681 4.1180714439630846 0 0 -1
27 1 1 14.92077591486519 3.443571791310596 2.224120178647472 3.91030344975433 0 0 -1
74 1 1 14.92077591486519 1.04460815359152 2.5988712457722016 3.9234745403081317 0 0 0
39 1 1 14.92077591486519 2.2515634791396577 3.0670395538351793 4.149233855710852 0 0 -1
29 1 1 14.92077591486519 4.524108455960914 2.5133170705003542 4.001428757342544 0 0 -1
82 1 1 14.92077591486519 0.3807599294191744 3.6974524492354286 3.8610326922826794 0 0 0
94 1 1 14.92077591486519 3.663563477682176 3.289655629898513 3.6953383412258782 0 0 0
47 1 1 14.92077591486519 4.6488066070519665 3.607858925053704 4.399237982694772 0 0 -1
37 1 1 14.92077591486519 0.8249004479873987 4.625953209651028 4.17010953913924 0 0 -1
41 1 1 14.92077591486519 2.0337129441594604 4.229778908423948 4.294011115589693 0 0 -1
45 1 1 14.92077591486519 3.071497173563551 4.198775295996888 3.9553072187016256 0 0 -1
33 1 1 14.92077591486519 5.078056504599274 4.711784914448586 3.8925912500000504 -1 0 -1

Velocities

5 0.030010007811050184 -0.22722849963465386 0.2886019450068281 0 0 0
11 -0.2812044198117129 0.4379676194864529 -0.2520509308059977 0 0 0
13 -0.15627014002063078 0.22744777445489536 0.46151663246940844 0 0 0
17 -0.2472641741983671 0.3314654203783553 0.4261042183100098 0 0 0
15 0.0682962610292042 -0.033971260036536596 0.49365754725121924 0 0 0
4 -0.17133924973164424 -0.3982229556226946 0.4973140015211796 0 0 0
23 -0.11039918087884461 -0.35887157872838754 0.5402833555821934 0 0 0
21 0.24017101726540427 -0.16476958908861208 -0.18844678872962523 0 0 0
28 0.09618075760077624 -0.06512799182357731 0.3397247927851376 0 0 0
31 -0.0643219961623706 0.2811578561731562 0.5420683211799113 0 0 0
35 0.0024715467540484372 -0.2623053087386498 0.5260245172729999 0 0 0
43 0.23463234389224466 0.8828125472406398 0.16394986680153878 0 0 0
46 0.39174788959104534 0.3855382505908 0.4744806430668587 0 0 0
34 -0.4354873130611867 -0.14554813008075212 -0.1762184045030756 0 0 0
9 0.3008282180327321 -0.06388575826572977 -0.6169718742109441 0 0 0
49 0.12143785243904852 -0.33504584056914605 -0.1832722083432787 0 0 0
2 -0.262852334913876 0.34492688236404856 -0.09584683758763977 0 0 0
10 -0.18796238757429967 -0.21850129881490027 -0.24219459277787084 0 0 0
20 0.10216202471957449 -0.06466483870588417 0.2693441912701788 0 0 0
8 0.07507913786588531 0.40960660439886926 -0.08041176537293515 0 0 0
12 0.28886040546071917 0.23651049846066388 0.27962376054823307 0 0 0
16 0.018768242709389354 -0.16183988946506228 -0.13781461288793645 0 0 0
26 -0.3398270596555877 0.04602905923230992 -0.14375856988627203 0 0 0
30 -0.2143432000763351 -0.4411413641693458 0.19542430922141152 0 0 0
22 0.04093588796419399 0.06611311385322322 0.2111603765325109 0 0 0
36 -0.26161021075959917 0.32685586268457245 -0.6846030809221721 0 0 0
48 -0.052986037839632114 -0.10021796840460355 -0.6161332600885346 0 0 0
40 -0.037425031627425304 -0.36394572646818507 0.11750286826337052 0 0 0
38 0.3422576287759788 0.33598835042138614 -0.12317327591691293 0 0 0
42 0.20625175720989639 -0.0016394949027303087 0.08771846776321364 0 0 0
50 -0.12816746582879324 -0.062051358384959975 0.15242098129628967 0 0 0
6 0.05740680574194746 0.035074298443969865 -0.382312063126525 0 0 0
14 -0.1731421591638154 -0.4166504891118469 -0.17084103332212877 0 0 0
69 0.007225321756214597 0.3938693333965799 0.3317561246990441 0 0 0
53 0.11504522315660609 0.4897208129256194 0.38360055647352803 0 0 0
57 -0.4078301566456812 0.11798659986044974 0.22692239415831064 0 0 0
24 0.24783033404076907 -0.26641984170980954 0.3394888880352119 0 0 0
77 -0.44416390690694824 0.019214572845751732 -0.2481000572954821 0 0 0
79 0.11519090125255718 -0.5169674185645197 0.011100811259113072 0 0 0
75 -0.09151475223446387 0.3666006508672955 -0.28038513934909814 0 0 0
97 -0.29165915541327453 -0.587258515567309 -0.32540203373336113 0 0 0
32 -0.20613193364564672 0.15418960687420802 -0.0913238841338406 0 0 0
89 0.18794016214097947 0.01761888644841748 -0.6181530942128352 0 0 0
44 0.1155305842243723 -0.2940307606993413 -0.23886025282515091 0 0 0
91 -0.03261698992836075 -0.14508053835609788 -0.018305440568690188 0 0 0
95 0.4798158660297651 -0.2061087919587784 -0.3672980431390166 0 0 0
83 0.5539104924454111 0.014364418302752213 -0.6525347306155225 0 0 0
18 -0.3692391094474469 -0.491324161709794 -0.6909130601104141 0 0 0
59 -0.35179225836514766 0.28792636242526265 -0.5297474866709319 0 0 0
51 -0.10092522362750757 0.16343528967718746 0.07988407222030798 0 0 0
58 0.0942882731512213 -0.021696189972100165 -0.2645057746750771 0 0 0
65 -0.35297461081790316 -0.2737308633486816 -0.0299408318426487 0 0 0
54 0.17020763301366237 -0.5700972070277598 0.12547134531502774 0 0 0
73 -0.4054783312744837 0.41096162181057244 0.17633860332558332 0 0 0
61 -0.11109807344853995 -0.030392600785748805 0.2564312202225526 0 0 0
78 -0.13283517981816917 -0.31180635099935605 -0.13942733227867776 0 0 0
71 0.0014428995033669578 -0.09630028231657443 -0.2042777057727709 0 0 0
85 -0.07532000075474297 0.2940931535090401 -0.44056630565018984 0 0 0
98 -0.263198207224141 -0.10003454397815434 0.3871569257541427 0 0 0
93 -0.5524654820858425 0.08149415903822521 0.5042626097746156 0 0 0
99 -0.08188132527934147 -0.20079227772932617 -0.2765342560772037 0 0 0
87 0.43616942252189494 0.4358080347383004 0.5633992144167078 0 0 0
55 -0.04156183688040536 0.29141285501943776 -0.12672683391245926 0 0 0
63 0.167191543761801 0.19257608550166627 0.37974921062547906 0 0 0
67 -0.4529981637260031 0.2875877502153126 0.3771503272776877 0 0 0
64 -0.09123049319532178 0.43170322403147465 -0.13044187158103618 0 0 0
52 0.27969680159178717 0.16022363820039986 -0.3963836132565967 0 0 0
62 -0.117867779018073 -0.40247764950927406 -0.043594285587925774 0 0 0
66 -0.02164366907505161 0.13448320138195674 0.629853176453065 0 0 0
70 0.23344947544478695 0.506304015664612 -0.21548318703375083 0 0 0
3 0.39963815126934066 -0.06997506265310925 0.36400669451373546 0 0 0
80 -0.05880714224957245 -0.23949220603355895 0.20766599788090004 0 0 0
76 0.07123034180449234 -0.07503228202504766 -0.0011403494581306844 0 0 0
72 0.21110606108845767 0.4088484562535458 -0.321858934691592 0 0 0
86 0.2640933807049843 -0.003549350784294536 0.26388363823221866 0 0 0
90 0.6895940259480529 -0.6931937118922811 -0.4569022158770471 0 0 0
81 0.4568996391932631 0.09948756242879639 -0.8957818048144814 0 0 0
84 -0.09901849070494295 -0.27043164686745436 0.40152225039959966 0 0 0
88 0.03699666983518532 0.17083863980215738 -0.6696935418673837 0 0 0
96 0.008216308678180628 -0.25677841166392346 0.49578259383011314 0 0 0
100 -0.36964249721686115 -0.19380133840108943 -0.20239159171830606 0 0 0
56 -0.3048589877757016 -0.06323771299684079 -0.5838344375907591 0 0 0
92 -0.2769860138094559 0.1989574041802199 -0.0778540895304539 0 0 0
68 -0.11604877785988613 0.1521848954784737 -0.235726083363994 0 0 0
1 0.07632965629066439 -0.4627612066960938 -0.035922488271584944 0 0 0
60 -0.24124126319697936 -0.8797483905877901 -0.42117533771983884 0 0 0
7 -0.47193579090423815 0.8197640765531522 0.37577946912144294 0 0 0
19 0.4259359135443753 -0.3036242270200399 0.20582315655379876 0 0 0
25 0.06501030800788153 0.19795052188659196 0.2165760155636682 0 0 0
27 0.19513000204567843 -0.11402180264940255 0.16172747156796455 0 0 0
74 0.05675228143728876 0.04304901875174022 -0.08414902888458038 0 0 0
39 -0.027783673610817038 0.12995946310372017 0.35669366440385564 0 0 0
29 -0.11163101746783587 0.19257187158179706 0.20857110959027994 0 0 0
82 0.06066445883823246 -0.6379304522995467 -0.05875423632493165 0 0 0
94 0.23251726555421925 -0.2646051685249926 0.15408492846327676 0 0 0
47 0.008874328194188433 0.3994552055287926 0.17073964244422385 0 0 0
37 0.3385192182231978 0.3448957439249053 0.2602749974941699 0 0 0
41 -0.0012407929533888881 0.025148853656080442 0.1518847217518743 0 0 0
45 0.32349943814201987 -0.09929677238346271 -0.12188252762543474 0 0 0
33 0.4567832801682457 0.2454469546799433 -0.24448144142098704 0 0 0

Ellipsoids

5 0.4 0.4 0.8 -0.8201868888528709 -0.079787876086599 -0.3826168807309004 0.41776989451514307
11 0.4 0.4 0.8 0.38859123247990973 0.15476041343427147 -0.9040012116964022 -0.08847529443203075
13 0.4 0.4 0.8 -0.020541353957190263 0.5820595420817216 -0.46694402696915216 0.6653931303575756
17 0.4 0.4 0.8 -0.29204745674888904 -0.07223808799842024 0.36141359336539686 0.8825362067244322
15 0.4 0.4 0.8 0.2722664083710454 -0.0032687829596919162 0.19963419630861098 0.9412791857865065
4 0.4 0.4 0.8 0.5775973754583935 -0.17812044924920134 -0.4053988160425218 -0.6857887264851762
23 0.4 0.4 0.8 -0.8371183966465895 0.20552858063365775 -0.5001101090842202 0.08294981211748882
21 0.4 0.4 0.8 -0.29812942698057243 0.6660589610987994 -0.38932474273645756 -0.562059204889854
28 0.4 0.4 0.8 -0.3189924423623961 0.1312734147870974 -0.7359439456786364 0.5825784248534855
31 0.4 0.4 0.8 0.1496197021315966 0.6116225783345673 0.6909424076147525 0.3551483574014638
35 0.4 0.4 0.8 -0.18789531292826525 0.39763972500405936 0.0628059195739834 -0.8958981063406439
43 0.4 0.4 0.8 0.24930803046291716 -0.6260682687567817 -0.3216313381681578 -0.6651596132589137
46 0.4 0.4 0.8 0.014198339665404678 -0.9144655887726524 -0.005129966710056496 0.40438196985398056
34 0.4 0.4 0.8 0.5687084572413182 -0.1730633039803444 -0.8034732028556979 -0.032412895125444985
9 0.4 0.4 0.8 -0.17058668077641548 -0.6654552900604882 0.6670543714674075 0.2882844199370107
49 0.4 0.4 0.8 0.07441827697430639 0.2138881078604106 0.8728967721116062 -0.43216318978507107
2 0.4 0.4 0.8 0.02425649887001293 -0.19052881644069816 0.950394466054519 -0.24466456887179575
10 0.4 0.4 0.8 0.21746947492763655 0.77398974574083 0.17340618499497332 0.5688384621034627
20 0.4 0.4 0.8 0.33045229097926426 -0.16263016623841875 -0.33938858328218247 -0.865544973963533
8 0.4 0.4 0.8 0.9332136468749389 -0.10106528839873798 0.0850133641085202 -0.3341718490390968
12 0.4 0.4 0.8 -0.28841339397795746 -0.30901951091204355 -0.6714112699447558 0.6087130380080314
16 0.4 0.4 0.8 0.1709385119332148 0.6167728746436427 0.7292623131148154 -0.24196637144922578
26 0.4 0.4 0.8 0.22444892705197517 0.6038994147876924 -0.7498512334200998 -0.15050350063255943
30 0.4 0.4 0.8 -0.11691012703965126 0.17021481437207991 -0.917251625326306 -0.34060005138006205
22 0.4 0.4 0.8 -0.6557996066854526 0.5584446608284587 0.30858021548792114 0.4035401928839573
36 0.4 0.4 0.8 0.04271921040697794 0.9113473774278523 0.19916265080542095 0.3577083522113201
48 0.4 0.4 0.8 -0.47967252573203023 -0.012075740026867102 -0.8054688555520149 -0.34783382138082203
40 0.4 0.4 0.8 -0.33421151493258794 0.030729966282579676 -0.6458529021736668 0.6857349059312848
38 0.4 0.4 0.8 -0.7944685864849453 0.02047061191882399 -0.3854824868835112 -0.46883245561968656
42 0.4 0.4 0.8 0.572003772253335 0.1522901484878025 -0.6310873543583858 0.5013463337558688
50 0.4 0.4 0.8 -0.4905357036603708 -0.3079941430285978 -0.5392379628174901 -0.6113401268941435
6 0.4 0.4 0.8 -0.26341334692945817 -0.07001721328540997 0.892796504352268 -0.35864383491081675
14 0.4 0.4 0.8 0.1379918014630709 -0.24989982951819145 0.5927643084339791 -0.7530861920009833
69 0.4 0.4 0.8 0.3548742543965351 -0.16137732423372753 -0.6754438769732874 -0.6259370510274657
53 0.4 0.4 0.8 0.06809527366323892 0.11810601325463395 0.36892351480141056 -0.9194071152456882
57 0.4 0.4 0.8 -0.16221050365808173 0.7090549844965998 -0.4375562405528497 -0.5286523600786954
24 0.4 0.4 0.8 -0.9631936557942145 -0.06434126896587909 0.014709719224150835 0.26057975114345194
77 0.4 0.4 0.8 0.0828503799423918 0.15204503958606133 0.5140620983606498 0.8400942087109755
79 0.4 0.4 0.8 0.4114634179681715 -0.04847001557627906 -0.06720771914302336 -0.9076517150050329
75 0.4 0.4 0.8 0.05630349183375469 -0.07365119151955896 0.9196247686266943 0.3817010659185726
97 0.4 0.4 0.8 -0.3150264040652747 0.7332857524507241 0.3703767321634938 -0.47525934632195205
32 0.4 0.4 0.8 -0.4255129534586185 0.8247486772546224 -0.18422643616394133 -0.32371123864334334
89 0.4 0.4 0.8 0.7572778804357065 0.0329097310869496 0.6021415383472478 0.2507443502841059
44 0.4 0.4 0.8 0.6353022493207525 -0.1045615146664165 -0.750150226805381 -0.15077326978775962
91 0.4 0.4 0.8 0.5034485563946837 0.11398430481258147 -0.8431157438263513 0.15067505378343118
95 0.4 0.4 0.8 -0.38424578317725727 -0.5815191641100408 0.6707508646745222 0.2535427329300458
83 0.4 0.4 0.8 0.1454578103562729 -0.5168795093152135 0.8136566231007761 0.22280147652263033
18 0.4 0.4 0.8 -0.36774321524721637 -0.6386751864209185 0.64658082012393 -0.1969572972441251
59 0.4 0.4 0.8 -0.14614312859973574 -0.2722251427814296 0.8519396703822956 -0.4227699795747293
51 0.4 0.4 0.8 -0.061665059361672575 -0.1806294471871994 0.6598445352908964 0.7267569143183359
58 0.4 0.4 0.8 -0.02895775889430747 -0.35500805469074415 -0.6419527772604379 -0.6789899565325862
65 0.4 0.4 0.8 0.638398800788354 -0.4844959380199076 0.19375878256473733 -0.5658340669959986
54 0.4 0.4 0.8 0.8176761742815016 -0.47225640868772945 -0.10685035440286458 0.3113881183181495
73 0.4 0.4 0.8 0.36564911618506646 0.03511307760680004 0.9293567359773874 0.03693037919538612
61 0.4 0.4 0.8 0.3698964515577882 -0.6358253249616104 0.5172982483308418 0.43738460596626183
78 0.4 0.4 0.8 -0.09138853037825656 0.3039000266172499 0.4050672134163455 -0.8574458950583729
71 0.4 0.4 0.8 -0.17421258843545115 -0.8154468084640693 0.4865839131752669 0.2606387769220614
85 0.4 0.4 0.8 -0.9320788225608667 -0.22960879199211576 0.18657778943830397 -0.20903970833740107
98 0.4 0.4 0.8 0.4840845187948721 -0.02764415208327514 0.41754285725932544 0.7684763769111269
93 0.4 0.4 0.8 -0.8517790299586195 -0.48678842216970547 0.19354016517312367 -0.007191705572515008
99 0.4 0.4 0.8 0.5106043985678193 -0.21183822375877792 -0.2463713656686393 0.7960583303354668
87 0.4 0.4 0.8 -0.8354896403490518 -0.5377030907059603 -0.11230196955566289 0.014856471606300463
55 0.4 0.4 0.8 0.14386446030819025 -0.4151406611147074 0.8698052204509261 -0.22449972611518426
63 0.4 0.4 0.8 0.23524344446987352 -0.7647130693005662 -0.14405578257469573 0.5823421459774734
67 0.4 0.4 0.8 -0.521095225381831 0.647851872594453 0.552247954721407 -0.06139962350163418
64 0.4 0.4 0.8 -0.020794939097666516 -0.7992013006726854 0.025851495976443536 -0.6001471083549368
52 0.4 0.4 0.8 -0.8513989935462929 0.5092057040550194 0.08085654601961037 -0.09639255008541907
62 0.4 0.4 0.8 -0.023652531366884378 0.32109245139982373 -0.9004651860752534 0.29240835159148526
66 0.4 0.4 0.8 0.9393362526499307 -0.06629773047888425 -0.22654523959314596 0.2488559217873246
70 0.4 0.4 0.8 0.8774898676349215 0.31309473574815844 -0.36007146159941217 -0.04828831314615916
3 0.4 0.4 0.8 -0.29575253559201226 -0.6902552704681818 -0.6452076599701533 -0.14065978386742856
80 0.4 0.4 0.8 0.2723845493694607 -0.21154649569070846 -0.19287328358029016 -0.9186156072627625
76 0.4 0.4 0.8 0.11921314352819531 -0.7376676391014865 0.5940720555037582 -0.29784739969001695
72 0.4 0.4 0.8 -0.4623750106319617 -0.8851968867653035 0.04479292144670574 0.025088152430521458
86 0.4 0.4 0.8 0.10068461753756888 0.04319319502611902 0.36772133301036264 -0.9234597863165624
90 0.4 0.4 0.8 0.7035188331263784 -0.6008796218871132 -0.3346349679237364 0.17895354056284732
81 0.4 0.4 0.8 0.4062347865898662 0.7755158999971316 0.4764764019301991 0.08073800480304452
84 0.4 0.4 0.8 0.29606868542871434 -0.43977578988603144 -0.5062156771434607 -0.6802104647480938
88 0.4 0.4 0.8 -0.07371176996149902 0.48747018406573356 -0.8467994234109024 0.19967506385882564
96 0.4 0.4 0.8 0.6141171915770359 -0.17115102141386312 0.6892193494148933 -0.34430232539243294
100 0.4 0.4 0.8 0.13274711506150724 0.7312921578677674 -0.6686570044139749 0.02208605288594925
56 0.4 0.4 0.8 -0.2960308682002676 0.6940593060121217 -0.6406153498580504 -0.14233544300986836
92 0.4 0.4 0.8 -0.40155522170517893 -0.013775363783129645 0.11744621869752528 -0.9081685025300096
68 0.4 0.4 0.8 0.09431753884610311 0.1838369004947314 -0.7238645563271803 0.6582767654837578
1 0.4 0.4 0.8 -0.18335027296774722 0.5454699141174354 -0.7102716319687383 -0.4054127020899015
60 0.4 0.4 0.8 -0.5602146996380465 0.29946244021944274 -0.02836343929696212 0.771801303781302
7 0.4 0.4 0.8 -0.001207910523568374 0.1633334387312661 -0.985711935992759 0.04114253256417048
19 0.4 0.4 0.8 0.5113019882278463 0.6188602047988448 -0.29991764699458007 -0.5153947310283813
25 0.4 0.4 0.8 -0.08410673611992203 0.49752099765720353 0.8087006608908376 0.3023278930303276
27 0.4 0.4 0.8 0.25220083895829387 -0.5816883807873402 0.6631094241430371 -0.39789352356933977
74 0.4 0.4 0.8 -0.5295234018728132 0.7098796169700026 -0.3331279836862364 0.32357633220726817
39 0.4 0.4 0.8 -0.012165745607611422 0.3999901328385855 0.033423790916830856 -0.9158289897499039
29 0.4 0.4 0.8 -0.0585047691816267 -0.37862329750298845 0.7000115307534552 -0.6026652863598271
82 0.4 0.4 0.8 0.562577804198991 -0.05581236162840736 0.25833862003942965 -0.783359656804092
94 0.4 0.4 0.8 -0.02925777605931591 -0.3950743303901708 0.8517381292395677 0.34293208541386505
47 0.4 0.4 0.8 -0.0805923803115347 0.8565533941451003 0.3767656886651189 0.3433202106764589
37 0.4 0.4 0.8 0.07992351244370388 -0.5368036342244161 -0.4538752320576563 -0.7067187305899915
41 0.4 0.4 0.8 0.6749328069228315 0.10496945719293006 0.514950436086291 -0.5179509316242497
45 0.4 0.4 0.8 0.3033791297276848 -0.0371612179620403 0.024328935171817997 -0.9518341506999293
33 0.4 0.4 0.8 0.9040055921111089 -0.17896947741394423 -0.24502792315893832 -0.3011729278312389
