LAMMPS (29 Aug 2024 - Development - patch_29Aug2024-409-g5d879678f6-modified)
KOKKOS mode with Kokkos version 4.3.1 is enabled (../kokkos.cpp:72)
package kokkos
package kokkos comm no
###
# Box and units  (use LJ units and periodic boundaries)
###

units           lj
atom_style      ellipsoid
dimension	3
boundary	p p p

lattice		sc 0.75
Lattice spacing in x,y,z = 1.1006424 1.1006424 1.1006424
region		box block 0 5 0 5 0 4
create_box	1 box
Created orthogonal box = (0 0 0) to (5.5032121 5.5032121 4.4025697)
  1 by 1 by 1 MPI processor grid
create_atoms	1 box
Created 100 atoms
  using lattice units in orthogonal box = (0 0 0) to (5.5032121 5.5032121 4.4025697)
  create_atoms CPU = 0.260 seconds

group           all type 1
100 atoms in group all
set             type 1 mass 1.0
Setting atom values ...
  100 settings made for mass
set             type 1 shape 0.4 0.4 0.8
Setting atom values ...
  100 settings made for shape
set             type 1 quat/random 29898
Setting atom values ...
  100 settings made for quat/random

velocity 	all create 0.1 87287 loop geom

neighbor        0.3 bin
neigh_modify    delay 0 every 100 check yes

###################################################################
# Pair interaction between non-bonded atoms
#
#  Lennard-Jones 12-6 potential with cutoff:
#  potential E=4epsilon[ (sigma/r)^12 - (sigma/r)^6]  for r<r_cut
#
#  1.12246152962189 = 2^(1/6) is the minimum of the potential

pair_style      lj/cut 1.12246152962189

#
#  pair_coeff for lj/cut, specify 4:
#    * atom type interacting with
#    * atom type
#    * epsilon (energy units)
#    * sigma (distance units)
#

pair_coeff      1 1 1.0 1.0

#
#  pair_modify shift yes adds a constant to the potential such
#  that E(r_cut)=0. Forces remains unchanged.
#

pair_modify     shift yes

###################################################
reset_atoms 	id sort yes
Resetting atom IDs ...
Generated 0 of 0 mixed pair_coeff terms from geometric mixing rule
Neighbor list info ...
  update: every = 100 steps, delay = 0 steps, check = yes
  max neighbors/atom: 2000, page size: 100000
  master list distance cutoff = 1.4224615
  ghost atom cutoff = 1.4224615
  binsize = 0.71123076, bins = 8 8 7
  1 neighbor lists, perpetual/occasional/extra = 1 0 0
  (1) pair lj/cut/kk, perpetual
      attributes: half, newton on, kokkos_device
      pair build: half/bin/newton/kk/device
      stencil: half/bin/3d
      bin: kk/device

comm_modify cutoff 6
#comm_style tiled
#balance 1.2 rcb

###
# Set up fixes
###

fix 1 all   nve  ###NVE ensemble
#fix 2 all   langevin   1.0 1.0   2.0   424242   ###Langevin integrator Tstart Tstop 1/friction rndseed

compute ekin all ke
compute epot all pe
variable ekin equal c_ekin
variable epot equal c_epot
variable etot equal c_ekin+c_epot

fix 3 all print 100 "$(step)  ekin = ${ekin} | epot = ${epot} | etot = ${etot}" screen yes

compute q all property/atom quatw quati quatj quatk
compute diameter all property/atom shapex shapey shapez
dump 1 all custom 5000 dump.polymer id type x y z c_q[1] c_q[2] c_q[3] c_q[4] c_diameter[1] c_diameter[2] c_diameter[3]
dump_modify 1 colname c_q[1] quatw colname c_q[2] quati colname c_q[3] quatj colname c_q[4] quatk

###################################################

timestep 0.0001 #0.012

run 20000
Generated 0 of 0 mixed pair_coeff terms from geometric mixing rule
0  ekin = 14.85 | epot = 4.68749999769384 | etot = 19.5374999976938
Per MPI rank memory allocation (min/avg/max) = 5.701 | 5.701 | 5.701 Mbytes
   Step          Temp          E_pair         E_mol          TotEng         Press     
         0   0.1            0.046875       0              0.195375       1.339875     
100  ekin = 14.6080903939163 | epot = 4.92940971780027 | etot = 19.5375001117166
200  ekin = 13.9027725396376 | epot = 5.63472795032067 | etot = 19.5375004899583
300  ekin = 12.8002324366482 | epot = 6.73726898039331 | etot = 19.5375014170415
400  ekin = 11.4340627495521 | epot = 8.10343975644887 | etot = 19.537502506001
500  ekin = 9.95752426236505 | epot = 9.57997912053213 | etot = 19.5375033828972
600  ekin = 8.50959204441843 | epot = 11.0279121675993 | etot = 19.5375042120177
700  ekin = 7.22220228943416 | epot = 12.315302628214 | etot = 19.5375049176482
800  ekin = 6.20783281940404 | epot = 13.3296726127522 | etot = 19.5375054321563
900  ekin = 5.54680259685232 | epot = 13.9907030485302 | etot = 19.5375056453825
1000  ekin = 5.27297151940316 | epot = 14.2645340052556 | etot = 19.5375055246588
1100  ekin = 5.36775843029303 | epot = 14.1697466668682 | etot = 19.5375050971612
1200  ekin = 5.76429288569603 | epot = 13.7732115733983 | etot = 19.5375044590943
1300  ekin = 6.36108505156423 | epot = 13.1764186686941 | etot = 19.5375037202583
1400  ekin = 7.04184989144829 | epot = 12.4956531705953 | etot = 19.5375030620436
1500  ekin = 7.70038915273065 | epot = 11.8371133814458 | etot = 19.5375025341765
1600  ekin = 8.25383347665663 | epot = 11.2836687765648 | etot = 19.5375022532214
1700  ekin = 8.65345760590208 | epot = 10.8840445649413 | etot = 19.5375021708434
1800  ekin = 8.88740221411335 | epot = 10.6501001080934 | etot = 19.5375023222068
1900  ekin = 8.97591454153721 | epot = 10.5615880571419 | etot = 19.5375025986791
2000  ekin = 8.96319151294626 | epot = 10.5743115745214 | etot = 19.5375030874677
2100  ekin = 8.91314430000391 | epot = 10.6243592455504 | etot = 19.5375035455543
2200  ekin = 8.89860690658512 | epot = 10.6388970573756 | etot = 19.5375039639607
2300  ekin = 8.97570394097297 | epot = 10.56180012942 | etot = 19.537504070393
2400  ekin = 9.16761515931865 | epot = 10.3698889448596 | etot = 19.5375041041783
2500  ekin = 9.47551618407514 | epot = 10.0619877976144 | etot = 19.5375039816895
2600  ekin = 9.88191794179093 | epot = 9.65558587251894 | etot = 19.5375038143099
2700  ekin = 10.3576141224249 | epot = 9.17988947138828 | etot = 19.5375035938132
2800  ekin = 10.8677363965079 | epot = 8.66976698224068 | etot = 19.5375033787486
2900  ekin = 11.3761945851109 | epot = 8.16130852446572 | etot = 19.5375031095766
3000  ekin = 11.8448137391743 | epot = 7.69268922274449 | etot = 19.5375029619188
3100  ekin = 12.2480059732321 | epot = 7.28949681649418 | etot = 19.5375027897262
3200  ekin = 12.5669464578692 | epot = 6.97055632073151 | etot = 19.5375027786007
3300  ekin = 12.7959765970335 | epot = 6.74152621402845 | etot = 19.537502811062
3400  ekin = 12.9386758475342 | epot = 6.59882703948239 | etot = 19.5375028870166
3500  ekin = 13.0034835775441 | epot = 6.53401938498067 | etot = 19.5375029625248
3600  ekin = 13.0037242267587 | epot = 6.53377892501371 | etot = 19.5375031517725
3700  ekin = 12.9615708567892 | epot = 6.57593245034426 | etot = 19.5375033071335
3800  ekin = 12.8968589427355 | epot = 6.64064441611674 | etot = 19.5375033588522
3900  ekin = 12.816099021297 | epot = 6.72140439639787 | etot = 19.5375034176949
4000  ekin = 12.7265564742516 | epot = 6.81094705311952 | etot = 19.5375035273711
4100  ekin = 12.6409002337852 | epot = 6.89660332191357 | etot = 19.5375035556988
4200  ekin = 12.5683776111228 | epot = 6.96912595347605 | etot = 19.5375035645989
4300  ekin = 12.5160679468439 | epot = 7.02143565624319 | etot = 19.5375036030871
4400  ekin = 12.4913552368643 | epot = 7.04614844014553 | etot = 19.5375036770098
4500  ekin = 12.5075417698364 | epot = 7.02996201115942 | etot = 19.5375037809958
4600  ekin = 12.5804486736361 | epot = 6.95705520115536 | etot = 19.5375038747915
4700  ekin = 12.7228365324132 | epot = 6.81466740517508 | etot = 19.5375039375882
4800  ekin = 12.9435326710186 | epot = 6.59397132820659 | etot = 19.5375039992252
4900  ekin = 13.2464375909577 | epot = 6.29106633962554 | etot = 19.5375039305832
5000  ekin = 13.6207282563594 | epot = 5.91677553096706 | etot = 19.5375037873265
5100  ekin = 14.042296261291 | epot = 5.49520732237434 | etot = 19.5375035836654
5200  ekin = 14.479731046217 | epot = 5.05777247131886 | etot = 19.5375035175358
5300  ekin = 14.9095776220385 | epot = 4.62792573168938 | etot = 19.5375033537279
5400  ekin = 15.3032863236554 | epot = 4.23421690572483 | etot = 19.5375032293803
5500  ekin = 15.6367558809993 | epot = 3.90074719695363 | etot = 19.5375030779529
5600  ekin = 15.8907871878721 | epot = 3.6467158447493 | etot = 19.5375030326214
5700  ekin = 16.0565738231805 | epot = 3.48092929731877 | etot = 19.5375031204993
5800  ekin = 16.1394868443611 | epot = 3.39801634797305 | etot = 19.5375031923341
5900  ekin = 16.1440785878565 | epot = 3.39342475790876 | etot = 19.5375033457653
6000  ekin = 16.0867413277181 | epot = 3.45076224402347 | etot = 19.5375035717415
6100  ekin = 15.9939431729031 | epot = 3.54356055640458 | etot = 19.5375037293077
6200  ekin = 15.8883932962838 | epot = 3.64911055801232 | etot = 19.5375038542961
6300  ekin = 15.7909452710195 | epot = 3.74655869163588 | etot = 19.5375039626554
6400  ekin = 15.7209864663348 | epot = 3.81651758930337 | etot = 19.5375040556382
6500  ekin = 15.6913842727131 | epot = 3.84611975622854 | etot = 19.5375040289416
6600  ekin = 15.7029595546565 | epot = 3.83454438818612 | etot = 19.5375039428426
6700  ekin = 15.7449271326366 | epot = 3.79257682034639 | etot = 19.5375039529829
6800  ekin = 15.8095895220162 | epot = 3.72791422049111 | etot = 19.5375037425074
6900  ekin = 15.8719497284726 | epot = 3.66555387243172 | etot = 19.5375036009043
7000  ekin = 15.9004071643098 | epot = 3.63709622556753 | etot = 19.5375033898773
7100  ekin = 15.8652957833459 | epot = 3.67220743414616 | etot = 19.5375032174921
7200  ekin = 15.746621320335 | epot = 3.7908818052804 | etot = 19.5375031256154
7300  ekin = 15.54114654648 | epot = 3.99635665565669 | etot = 19.5375032021367
7400  ekin = 15.2669711805434 | epot = 4.27053223988295 | etot = 19.5375034204263
7500  ekin = 14.9636579656239 | epot = 4.57384580337868 | etot = 19.5375037690026
7600  ekin = 14.6787358327525 | epot = 4.8587680313824 | etot = 19.5375038641349
7700  ekin = 14.4379955397325 | epot = 5.09950841962449 | etot = 19.537503959357
7800  ekin = 14.2622071391447 | epot = 5.27529692125004 | etot = 19.5375040603948
7900  ekin = 14.1672667579961 | epot = 5.37023728620902 | etot = 19.5375040442051
8000  ekin = 14.1522895679777 | epot = 5.38521441926605 | etot = 19.5375039872437
8100  ekin = 14.2023991157311 | epot = 5.33510469482856 | etot = 19.5375038105597
8200  ekin = 14.2934779152889 | epot = 5.24402573652889 | etot = 19.5375036518178
8300  ekin = 14.4025131316429 | epot = 5.13499038407777 | etot = 19.5375035157206
8400  ekin = 14.5113682073601 | epot = 5.02613517414585 | etot = 19.5375033815059
8500  ekin = 14.6041226160479 | epot = 4.9333807488278 | etot = 19.5375033648757
8600  ekin = 14.6770366346476 | epot = 4.86046678321943 | etot = 19.5375034178671
8700  ekin = 14.7315522219725 | epot = 4.80595117460599 | etot = 19.5375033965785
8800  ekin = 14.7658975087743 | epot = 4.77160597812535 | etot = 19.5375034868997
8900  ekin = 14.7867783173365 | epot = 4.750725264957 | etot = 19.5375035822935
9000  ekin = 14.7994211964315 | epot = 4.73808233971861 | etot = 19.5375035361501
9100  ekin = 14.800177770125 | epot = 4.73732563998411 | etot = 19.5375034101091
9200  ekin = 14.7836348928202 | epot = 4.75386855581501 | etot = 19.5375034486352
9300  ekin = 14.7489615189488 | epot = 4.78854174825933 | etot = 19.5375032672081
9400  ekin = 14.6893516042741 | epot = 4.84815170745005 | etot = 19.5375033117242
9500  ekin = 14.6039714591457 | epot = 4.93353186276302 | etot = 19.5375033219088
9600  ekin = 14.4917960485786 | epot = 5.04570730179818 | etot = 19.5375033503768
9700  ekin = 14.353549356207 | epot = 5.18395407771834 | etot = 19.5375034339254
9800  ekin = 14.2013797135316 | epot = 5.33612380931133 | etot = 19.5375035228429
9900  ekin = 14.0521564607805 | epot = 5.48534716495264 | etot = 19.5375036257331
10000  ekin = 13.9218004852941 | epot = 5.61570332412677 | etot = 19.5375038094209
10100  ekin = 13.830665020539 | epot = 5.70683887860739 | etot = 19.5375038991464
10200  ekin = 13.7925175278921 | epot = 5.74498637091069 | etot = 19.5375038988028
10300  ekin = 13.808963324307 | epot = 5.72854051876884 | etot = 19.5375038430759
10400  ekin = 13.8732455394495 | epot = 5.66425816868396 | etot = 19.5375037081335
10500  ekin = 13.9679237386774 | epot = 5.56957987032998 | etot = 19.5375036090073
10600  ekin = 14.0737856743828 | epot = 5.46371778461649 | etot = 19.5375034589993
10700  ekin = 14.1728104695881 | epot = 5.36469284714699 | etot = 19.5375033167351
10800  ekin = 14.2483314963315 | epot = 5.28917177624554 | etot = 19.5375032725771
10900  ekin = 14.2876119457316 | epot = 5.24989134322936 | etot = 19.537503288961
11000  ekin = 14.2949831246089 | epot = 5.24252022307265 | etot = 19.5375033476815
11100  ekin = 14.2852828086121 | epot = 5.25222060898382 | etot = 19.537503417596
11200  ekin = 14.2675787405834 | epot = 5.26992475471083 | etot = 19.5375034952942
11300  ekin = 14.2462990207238 | epot = 5.29120436533013 | etot = 19.5375033860539
11400  ekin = 14.2106986484917 | epot = 5.3268045975914 | etot = 19.5375032460832
11500  ekin = 14.138798552709 | epot = 5.39870457486317 | etot = 19.5375031275721
11600  ekin = 14.012535961726 | epot = 5.52496719632531 | etot = 19.5375031580513
11700  ekin = 13.8363434736845 | epot = 5.70115976453419 | etot = 19.5375032382187
11800  ekin = 13.6267641322016 | epot = 5.910739247153 | etot = 19.5375033793546
11900  ekin = 13.4086602330019 | epot = 6.1288433589066 | etot = 19.5375035919085
12000  ekin = 13.2171500586162 | epot = 6.32035377007187 | etot = 19.5375038286881
12100  ekin = 13.0878591616881 | epot = 6.44964485638661 | etot = 19.5375040180747
12200  ekin = 13.0487264281681 | epot = 6.48877768345928 | etot = 19.5375041116274
12300  ekin = 13.1195107725038 | epot = 6.4179933588296 | etot = 19.5375041313334
12400  ekin = 13.3005811345381 | epot = 6.23692284008414 | etot = 19.5375039746223
12500  ekin = 13.5632638360387 | epot = 5.9742398238856 | etot = 19.5375036599243
12600  ekin = 13.8634565902446 | epot = 5.67404660266954 | etot = 19.5375031929141
12700  ekin = 14.1392553726855 | epot = 5.39824753545451 | etot = 19.53750290814
12800  ekin = 14.3393634013255 | epot = 5.19813933820385 | etot = 19.5375027395294
12900  ekin = 14.4376715326708 | epot = 5.09983115619306 | etot = 19.5375026888639
13000  ekin = 14.4319999950683 | epot = 5.10550277859885 | etot = 19.5375027736672
13100  ekin = 14.3326220490971 | epot = 5.2048809104501 | etot = 19.5375029595472
13200  ekin = 14.163970855718 | epot = 5.37353233209068 | etot = 19.5375031878087
13300  ekin = 13.9621105052054 | epot = 5.57539293262181 | etot = 19.5375034378272
13400  ekin = 13.7718786006292 | epot = 5.7656251083044 | etot = 19.5375037089336
13500  ekin = 13.6232450519001 | epot = 5.91425871548978 | etot = 19.5375037673898
13600  ekin = 13.5120306125605 | epot = 6.02547311391903 | etot = 19.5375037264795
13700  ekin = 13.4233606125457 | epot = 6.11414277088587 | etot = 19.5375033834316
13800  ekin = 13.3189783341473 | epot = 6.2185247836948 | etot = 19.5375031178421
13900  ekin = 13.1628500572432 | epot = 6.37465297867949 | etot = 19.5375030359227
14000  ekin = 12.9455179362111 | epot = 6.59198510983536 | etot = 19.5375030460464
14100  ekin = 12.6786526005269 | epot = 6.85885062015749 | etot = 19.5375032206844
14200  ekin = 12.3917917525 | epot = 7.14571175917449 | etot = 19.5375035116745
14300  ekin = 12.1331319870928 | epot = 7.40437180022908 | etot = 19.5375037873218
14400  ekin = 11.9532899925909 | epot = 7.58421411361561 | etot = 19.5375041062065
14500  ekin = 11.899412036427 | epot = 7.63809230046378 | etot = 19.5375043368908
14600  ekin = 12.0061316650528 | epot = 7.53137277209747 | etot = 19.5375044371502
14700  ekin = 12.2839727314083 | epot = 7.25353130049352 | etot = 19.5375040319018
14800  ekin = 12.6883139589251 | epot = 6.84918970071975 | etot = 19.5375036596449
14900  ekin = 13.152821928177 | epot = 6.38468123279296 | etot = 19.53750316097
15000  ekin = 13.6055887174522 | epot = 5.93191405883434 | etot = 19.5375027762865
15100  ekin = 13.9811156539692 | epot = 5.55638688890593 | etot = 19.5375025428752
15200  ekin = 14.2347373944266 | epot = 5.30276512927753 | etot = 19.5375025237041
15300  ekin = 14.353735777148 | epot = 5.1837668588807 | etot = 19.5375026360287
15400  ekin = 14.3545796537005 | epot = 5.18292314820615 | etot = 19.5375028019066
15500  ekin = 14.2723119510407 | epot = 5.26519113960103 | etot = 19.5375030906417
15600  ekin = 14.146111797274 | epot = 5.39139155648015 | etot = 19.5375033537542
15700  ekin = 14.0205256971615 | epot = 5.51697786952879 | etot = 19.5375035666903
15800  ekin = 13.9318490968108 | epot = 5.60565456919437 | etot = 19.5375036660052
15900  ekin = 13.8966697973864 | epot = 5.64083392457886 | etot = 19.5375037219653
16000  ekin = 13.9179863664825 | epot = 5.61951731129019 | etot = 19.5375036777727
16100  ekin = 13.9844476963862 | epot = 5.55305579894133 | etot = 19.5375034953276
16200  ekin = 14.0714912661777 | epot = 5.46601206255002 | etot = 19.5375033287277
16300  ekin = 14.1561388795445 | epot = 5.38136434170053 | etot = 19.537503221245
16400  ekin = 14.2244313232977 | epot = 5.31307186835923 | etot = 19.5375031916569
16500  ekin = 14.2710473429153 | epot = 5.26645582994064 | etot = 19.5375031728559
16600  ekin = 14.2899471533987 | epot = 5.24755597060813 | etot = 19.5375031240068
16700  ekin = 14.2782040911578 | epot = 5.25929905720624 | etot = 19.537503148364
16800  ekin = 14.2347481555038 | epot = 5.30275507874739 | etot = 19.5375032342512
16900  ekin = 14.158508422432 | epot = 5.37899472009875 | etot = 19.5375031425307
17000  ekin = 14.0490078115338 | epot = 5.48849533118819 | etot = 19.537503142722
17100  ekin = 13.9085542196193 | epot = 5.62894906759199 | etot = 19.5375032872113
17200  ekin = 13.7560546832061 | epot = 5.78144872196982 | etot = 19.5375034051759
17300  ekin = 13.6034878086536 | epot = 5.93401564766305 | etot = 19.5375034563166
17400  ekin = 13.4572827621912 | epot = 6.08022072146412 | etot = 19.5375034836553
17500  ekin = 13.3226240386877 | epot = 6.21487948305191 | etot = 19.5375035217396
17600  ekin = 13.2056460568014 | epot = 6.3318575252782 | etot = 19.5375035820796
17700  ekin = 13.1090728671864 | epot = 6.42843062467917 | etot = 19.5375034918656
17800  ekin = 13.0278414098476 | epot = 6.50966193554329 | etot = 19.5375033453909
17900  ekin = 12.9507283201523 | epot = 6.58677498479967 | etot = 19.537503304952
18000  ekin = 12.8746296879897 | epot = 6.66287364389074 | etot = 19.5375033318805
18100  ekin = 12.8074480735197 | epot = 6.73005534533877 | etot = 19.5375034188584
18200  ekin = 12.76161345294 | epot = 6.7758900217828 | etot = 19.5375034747228
18300  ekin = 12.7487977380462 | epot = 6.78870579964887 | etot = 19.5375035376951
18400  ekin = 12.7793539143863 | epot = 6.75814957142726 | etot = 19.5375034858136
18500  ekin = 12.8491991677837 | epot = 6.68830417256214 | etot = 19.5375033403459
18600  ekin = 12.9364584639726 | epot = 6.60104448736718 | etot = 19.5375029513398
18700  ekin = 13.001715628295 | epot = 6.53578715370806 | etot = 19.537502782003
18800  ekin = 13.0167641952331 | epot = 6.5207385746265 | etot = 19.5375027698596
18900  ekin = 12.9754155298051 | epot = 6.56208733651003 | etot = 19.5375028663151
19000  ekin = 12.8907274810728 | epot = 6.64677550778992 | etot = 19.5375029888628
19100  ekin = 12.7866415753883 | epot = 6.75086159353514 | etot = 19.5375031689235
19200  ekin = 12.69255441671 | epot = 6.84494902182707 | etot = 19.5375034385371
19300  ekin = 12.6497566837306 | epot = 6.88774702343651 | etot = 19.5375037071671
19400  ekin = 12.6948146249831 | epot = 6.84268912565541 | etot = 19.5375037506385
19500  ekin = 12.8404138710967 | epot = 6.69708987474468 | etot = 19.5375037458414
19600  ekin = 13.0860175436456 | epot = 6.45148609191737 | etot = 19.5375036355629
19700  ekin = 13.4162111706509 | epot = 6.12129234948989 | etot = 19.5375035201408
19800  ekin = 13.8027762172409 | epot = 5.73472704880744 | etot = 19.5375032660483
19900  ekin = 14.2094400811309 | epot = 5.32806299206472 | etot = 19.5375030731956
20000  ekin = 14.5927988803482 | epot = 4.94470373093768 | etot = 19.5375026112859
     20000   0.098268006    0.049447037    0              0.19537503     0.80784306   
Loop time of 1054.89 on 1 procs for 20000 steps with 100 atoms

Performance: 163.808 tau/day, 18.959 timesteps/s, 1.896 katom-step/s
100.0% CPU use with 1 MPI tasks x 1 OpenMP threads

MPI task timing breakdown:
Section |  min time  |  avg time  |  max time  |%varavg| %total
---------------------------------------------------------------
Pair    | 151.05     | 151.05     | 151.05     |   0.0 | 14.32
Neigh   | 0.92549    | 0.92549    | 0.92549    |   0.0 |  0.09
Comm    | 101.49     | 101.49     | 101.49     |   0.0 |  9.62
Output  | 0.049813   | 0.049813   | 0.049813   |   0.0 |  0.00
Modify  | 95.63      | 95.63      | 95.63      |   0.0 |  9.07
Other   |            | 705.8      |            |       | 66.90

Nlocal:            100 ave         100 max         100 min
Histogram: 1 0 0 0 0 0 0 0 0 0
Nghost:           3694 ave        3694 max        3694 min
Histogram: 1 0 0 0 0 0 0 0 0 0
Neighs:            488 ave         488 max         488 min
Histogram: 1 0 0 0 0 0 0 0 0 0

Total # of neighbors = 488
Ave neighs/atom = 4.88
Neighbor list builds = 11
Dangerous builds = 0

write_data data_out.* nocoeff
System init for write_data ...
Generated 0 of 0 mixed pair_coeff terms from geometric mixing rule
Total wall time: 0:17:38
