# LAMMPS data file
2000 atoms
2000 ellipsoids
1998 bonds

4 atom types
1 bond types

# System size
0.000000 1169.000000 xlo xhi
0.000000 1169.000000 ylo yhi
0.000000 1169.000000 zlo zhi

Masses

1 3.1575
2 3.1575
3 3.1575
4 3.1575

# Atom-ID, type, position, molecule-ID, ellipsoid flag, density
Atoms

1 3  7.896912384033203e+01 -4.175476729869843e-01  3.893730773925781e+02 1 1 1
2 1  7.880613708496094e+01 -8.557736128568649e-02  3.889833374023438e+02 1 1 1
3 2  7.886876678466797e+01  2.789052128791809e-01  3.885935668945312e+02 1 1 1
4 3  7.913321685791016e+01  5.374270677566528e-01  3.882037963867188e+02 1 1 1
5 4  7.949903106689453e+01  5.917713642120361e-01  3.878140258789062e+02 1 1 1
6 3  7.982721710205078e+01  4.212918281555176e-01  3.874242858886719e+02 1 1 1
7 4  7.999309539794922e+01  9.075649082660675e-02  3.870345153808594e+02 1 1 1
8 3  7.993364715576172e+01 -2.742587625980377e-01  3.866447448730469e+02 1 1 1
9 3  7.967146301269531e+01 -5.350785255432129e-01  3.862549743652344e+02 1 1 1
10 1  7.930613708496094e+01 -5.926129817962646e-01  3.858652343750000e+02 1 1 1
11 4  7.897647857666016e+01 -4.250039160251617e-01  3.854754638671875e+02 1 1 1
12 2  7.880771636962891e+01 -9.592871367931366e-02  3.850856933593750e+02 1 1 1
13 1  7.886397552490234e+01  2.695913910865784e-01  3.846959228515625e+02 1 1 1
14 3  7.912387847900391e+01  5.326892137527466e-01  3.843061828613281e+02 1 1 1
15 1  7.948868560791016e+01  5.934095382690430e-01  3.839164123535156e+02 1 1 1
16 4  7.981980133056641e+01  4.286836087703705e-01  3.835266418457031e+02 1 1 1
17 2  7.999142456054688e+01  1.010936275124550e-01  3.831368713378906e+02 1 1 1
18 1  7.993835449218750e+01 -2.649035155773163e-01  3.827471313476562e+02 1 1 1
19 3  7.968075561523438e+01 -5.302593708038330e-01  3.823573608398438e+02 1 1 1
20 1  7.931649780273438e+01 -5.941608548164368e-01  3.819675903320312e+02 1 1 1
21 3  7.898395538330078e+01 -4.323306679725647e-01  3.815778503417969e+02 1 1 1
22 1  7.880948638916016e+01 -1.062508448958397e-01  3.811880798339844e+02 1 1 1
23 4  7.885935211181641e+01  2.601954638957977e-01  3.807983093261719e+02 1 1 1
24 2  7.911462402343750e+01  5.277891159057617e-01  3.804085388183594e+02 1 1 1
25 3  7.947831726074219e+01  5.948669314384460e-01  3.800187988281250e+02 1 1 1
26 1  7.981225585937500e+01  4.359447956085205e-01  3.796290283203125e+02 1 1 1
27 1  7.998957061767578e+01  1.113999709486961e-01  3.792392578125000e+02 1 1 1
28 3  7.994289398193359e+01 -2.554675638675690e-01  3.788494873046875e+02 1 1 1
29 4  7.968997192382812e+01 -5.252786874771118e-01  3.784597473144531e+02 1 1 1
30 4  7.932688140869141e+01 -5.955277085304260e-01  3.780699768066406e+02 1 1 1
31 2  7.899156951904297e+01 -4.395257532596588e-01  3.776802062988281e+02 1 1 1
32 3  7.881142425537109e+01 -1.165406107902527e-01  3.772904357910156e+02 1 1 1
33 4  7.885489654541016e+01  2.507202327251434e-01  3.769006958007812e+02 1 1 1
34 1  7.910546112060547e+01  5.227282643318176e-01  3.765109252929688e+02 1 1 1
35 3  7.946791839599609e+01  5.961431264877319e-01  3.761211547851562e+02 1 1 1
36 2  7.980458068847656e+01  4.430732131004333e-01  3.757313842773438e+02 1 1 1
37 3  7.998753356933594e+01  1.216723769903183e-01  3.753416442871094e+02 1 1 1
38 2  7.994727325439453e+01 -2.459538131952286e-01  3.749518737792969e+02 1 1 1
39 4  7.969908905029297e+01 -5.201380252838135e-01  3.745621032714844e+02 1 1 1
40 1  7.933728027343750e+01 -5.967131257057190e-01  3.741723327636719e+02 1 1 1
41 3  7.899929809570312e+01 -4.465869367122650e-01  3.737825927734375e+02 1 1 1
42 1  7.881355285644531e+01 -1.267948746681213e-01  3.733928222656250e+02 1 1 1
43 2  7.885060119628906e+01  2.411686629056931e-01  3.730030517578125e+02 1 1 1
44 3  7.909638214111328e+01  5.175082087516785e-01  3.726132812500000e+02 1 1 1
45 4  7.945750427246094e+01  5.972377061843872e-01  3.722235412597656e+02 1 1 1
46 3  7.979678344726562e+01  4.500666558742523e-01  3.718337707519531e+02 1 1 1
47 4  7.998532104492188e+01  1.319077163934708e-01  3.714440002441406e+02 1 1 1
48 3  7.995148468017578e+01 -2.363651394844055e-01  3.710542297363281e+02 1 1 1
49 3  7.970812225341797e+01 -5.148389339447021e-01  3.706644897460938e+02 1 1 1
50 1  7.934770965576172e+01 -5.977168083190918e-01  3.702747192382812e+02 1 1 1
51 4  7.900715637207031e+01 -4.535120725631714e-01  3.698849487304688e+02 1 1 1
52 2  7.881584930419922e+01 -1.370105147361755e-01  3.694951782226562e+02 1 1 1
53 1  7.884647369384766e+01  2.315436303615570e-01  3.691054382324219e+02 1 1 1
54 3  7.908739471435547e+01  5.121304988861084e-01  3.687156677246094e+02 1 1 1
55 1  7.944707489013672e+01  5.981503725051880e-01  3.683258972167969e+02 1 1 1
56 4  7.978887176513672e+01  4.569229781627655e-01  3.679361267089844e+02 1 1 1
57 2  7.998293304443359e+01  1.421028822660446e-01  3.675463867187500e+02 1 1 1
58 1  7.995552062988281e+01 -2.267044782638550e-01  3.671566162109375e+02 1 1 1
59 3  7.971706390380859e+01 -5.093830227851868e-01  3.667668457031250e+02 1 1 1
60 1  7.935814666748047e+01 -5.985384583473206e-01  3.663770751953125e+02 1 1 1
61 3  7.901512908935547e+01 -4.602991044521332e-01  3.659873352050781e+02 1 1 1
62 1  7.881833648681641e+01 -1.471844315528870e-01  3.655975646972656e+02 1 1 1
63 4  7.884252166748047e+01  2.218480557203293e-01  3.652077941894531e+02 1 1 1
64 2  7.907850646972656e+01  5.065967440605164e-01  3.648180236816406e+02 1 1 1
65 3  7.943663024902344e+01  5.988808870315552e-01  3.644282836914062e+02 1 1 1
66 1  7.978083801269531e+01  4.636401534080505e-01  3.640385131835938e+02 1 1 1
67 1  7.998036193847656e+01  1.522547602653503e-01  3.636487426757812e+02 1 1 1
68 3  7.995939636230469e+01 -2.169747352600098e-01  3.632589721679688e+02 1 1 1
69 4  7.972590637207031e+01 -5.037719011306763e-01  3.628692321777344e+02 1 1 1
70 4  7.936859893798828e+01 -5.991777181625366e-01  3.624794616699219e+02 1 1 1
71 2  7.902322387695312e+01 -4.669458866119385e-01  3.620896911621094e+02 1 1 1
72 3  7.882099151611328e+01 -1.573135107755661e-01  3.616999206542969e+02 1 1 1
73 4  7.883872985839844e+01  2.120849043130875e-01  3.613101806640625e+02 1 1 1
74 1  7.906970977783203e+01  5.009087324142456e-01  3.609204101562500e+02 1 1 1
75 3  7.942617034912109e+01  5.994289517402649e-01  3.605306396484375e+02 1 1 1
76 2  7.977268981933594e+01  4.702160656452179e-01  3.601408691406250e+02 1 1 1
77 3  7.997761535644531e+01  1.623602658510208e-01  3.597511291503906e+02 1 1 1
78 2  7.996309661865234e+01 -2.071789205074310e-01  3.593613586425781e+02 1 1 1
79 4  7.973464965820312e+01 -4.980073571205139e-01  3.589715881347656e+02 1 1 1
80 1  7.937905883789062e+01 -5.996344685554504e-01  3.585818176269531e+02 1 1 1
81 3  7.903142547607422e+01 -4.734504520893097e-01  3.581920776367188e+02 1 1 1
82 1  7.882382202148438e+01 -1.673946678638458e-01  3.578023071289062e+02 1 1 1
83 2  7.883512115478516e+01  2.022571563720703e-01  3.574125366210938e+02 1 1 1
84 3  7.906101989746094e+01  4.950681030750275e-01  3.570227661132812e+02 1 1 1
85 4  7.941570281982422e+01  5.997943878173828e-01  3.566330261230469e+02 1 1 1
86 3  7.976442718505859e+01  4.766487777233124e-01  3.562432556152344e+02 1 1 1
87 4  7.997469329833984e+01  1.724163144826889e-01  3.558534851074219e+02 1 1 1
88 3  7.996662902832031e+01 -1.973199844360352e-01  3.554637145996094e+02 1 1 1
89 3  7.974328613281250e+01 -4.920911192893982e-01  3.550739746093750e+02 1 1 1
90 1  7.938952636718750e+01 -5.999085903167725e-01  3.546842041015625e+02 1 1 1
91 4  7.903974914550781e+01 -4.798108041286469e-01  3.542944335937500e+02 1 1 1
92 2  7.882683563232422e+01 -1.774248331785202e-01  3.539046630859375e+02 1 1 1
93 1  7.883167266845703e+01  1.923677921295166e-01  3.535149230957031e+02 1 1 1
94 3  7.905242919921875e+01  4.890766739845276e-01  3.531251525878906e+02 1 1 1
95 1  7.940523529052734e+01  5.999771356582642e-01  3.527353820800781e+02 1 1 1
96 4  7.975605010986328e+01  4.829362928867340e-01  3.523456115722656e+02 1 1 1
97 2  7.997159576416016e+01  1.824198365211487e-01  3.519558715820312e+02 1 1 1
98 1  7.996998596191406e+01 -1.874009519815445e-01  3.515661010742188e+02 1 1 1
99 3  7.975182342529297e+01 -4.860249757766724e-01  3.511763305664062e+02 1 1 1
100 1  7.940000152587891e+01 -6.000000238418579e-01  3.507865600585938e+02 1 1 1
101 3  7.904817962646484e+01 -4.860249757766724e-01  3.503968200683594e+02 1 1 1
102 1  7.883001708984375e+01 -1.874009519815445e-01  3.500070495605469e+02 1 1 1
103 4  7.882839965820312e+01  1.824198365211487e-01  3.496172790527344e+02 1 1 1
104 2  7.904394531250000e+01  4.829362928867340e-01  3.492275085449219e+02 1 1 1
105 3  7.939476776123047e+01  5.999771356582642e-01  3.488377685546875e+02 1 1 1
106 1  7.974756622314453e+01  4.890766739845276e-01  3.484479980468750e+02 1 1 1
107 1  7.996832275390625e+01  1.923677921295166e-01  3.480582275390625e+02 1 1 1
108 3  7.997316741943359e+01 -1.774248331785202e-01  3.476684570312500e+02 1 1 1
109 4  7.976025390625000e+01 -4.798108041286469e-01  3.472787170410156e+02 1 1 1
110 4  7.941046905517578e+01 -5.999085903167725e-01  3.468889465332031e+02 1 1 1
111 2  7.905670928955078e+01 -4.920911192893982e-01  3.464991760253906e+02 1 1 1
112 3  7.883337402343750e+01 -1.973199844360352e-01  3.461094055175781e+02 1 1 1
113 4  7.882530975341797e+01  1.724163144826889e-01  3.457196655273438e+02 1 1 1
114 1  7.903557586669922e+01  4.766487777233124e-01  3.453298950195312e+02 1 1 1
115 3  7.938429260253906e+01  5.997943878173828e-01  3.449401245117188e+02 1 1 1
116 2  7.973898315429688e+01  4.950681030750275e-01  3.445503540039062e+02 1 1 1
117 3  7.996488189697266e+01  2.022571563720703e-01  3.441606140136719e+02 1 1 1
118 2  7.997617340087891e+01 -1.673946678638458e-01  3.437708435058594e+02 1 1 1
119 4  7.976856994628906e+01 -4.734504520893097e-01  3.433810729980469e+02 1 1 1
120 1  7.942093658447266e+01 -5.996344685554504e-01  3.429913024902344e+02 1 1 1
121 3  7.906535339355469e+01 -4.980073571205139e-01  3.426015625000000e+02 1 1 1
122 1  7.883690643310547e+01 -2.071789205074310e-01  3.422117919921875e+02 1 1 1
123 2  7.882238769531250e+01  1.623602658510208e-01  3.418220214843750e+02 1 1 1
124 3  7.902731323242188e+01  4.702160656452179e-01  3.414322509765625e+02 1 1 1
125 4  7.937382507324219e+01  5.994289517402649e-01  3.410425109863281e+02 1 1 1
126 3  7.973028564453125e+01  5.009087324142456e-01  3.406527404785156e+02 1 1 1
127 4  7.996126556396484e+01  2.120849043130875e-01  3.402629699707031e+02 1 1 1
128 3  7.997901153564453e+01 -1.573135107755661e-01  3.398731994628906e+02 1 1 1
129 3  7.977677917480469e+01 -4.669458866119385e-01  3.394834594726562e+02 1 1 1
130 1  7.943140411376953e+01 -5.991777181625366e-01  3.390936889648438e+02 1 1 1
131 4  7.907409667968750e+01 -5.037719011306763e-01  3.387039184570312e+02 1 1 1
132 2  7.884060668945312e+01 -2.169747352600098e-01  3.383141479492188e+02 1 1 1
133 1  7.881964111328125e+01  1.522547602653503e-01  3.379244079589844e+02 1 1 1
134 3  7.901916503906250e+01  4.636401534080505e-01  3.375346374511719e+02 1 1 1
135 1  7.936337280273438e+01  5.988808870315552e-01  3.371448669433594e+02 1 1 1
136 4  7.972149658203125e+01  5.065967440605164e-01  3.367550964355469e+02 1 1 1
137 2  7.995748138427734e+01  2.218480557203293e-01  3.363653564453125e+02 1 1 1
138 1  7.998166656494141e+01 -1.471844315528870e-01  3.359755859375000e+02 1 1 1
139 3  7.978486633300781e+01 -4.602991044521332e-01  3.355858154296875e+02 1 1 1
140 1  7.944185638427734e+01 -5.985384583473206e-01  3.351960449218750e+02 1 1 1
141 3  7.908293914794922e+01 -5.093830227851868e-01  3.348063049316406e+02 1 1 1
142 1  7.884447479248047e+01 -2.267044782638550e-01  3.344165344238281e+02 1 1 1
143 4  7.881707000732422e+01  1.421028822660446e-01  3.340267639160156e+02 1 1 1
144 2  7.901113128662109e+01  4.569229781627655e-01  3.336369934082031e+02 1 1 1
145 3  7.935292816162109e+01  5.981503725051880e-01  3.332472534179688e+02 1 1 1
146 1  7.971260833740234e+01  5.121304988861084e-01  3.328574829101562e+02 1 1 1
147 1  7.995352172851562e+01  2.315436303615570e-01  3.324677124023438e+02 1 1 1
148 3  7.998414611816406e+01 -1.370105147361755e-01  3.320779418945312e+02 1 1 1
149 4  7.979284667968750e+01 -4.535120725631714e-01  3.316882019042969e+02 1 1 1
150 4  7.945229339599609e+01 -5.977168083190918e-01  3.312984313964844e+02 1 1 1
151 2  7.909187316894531e+01 -5.148389339447021e-01  3.309086608886719e+02 1 1 1
152 3  7.884851837158203e+01 -2.363651394844055e-01  3.305188903808594e+02 1 1 1
153 4  7.881468200683594e+01  1.319077163934708e-01  3.301291503906250e+02 1 1 1
154 1  7.900321197509766e+01  4.500666558742523e-01  3.297393798828125e+02 1 1 1
155 3  7.934249114990234e+01  5.972377061843872e-01  3.293496093750000e+02 1 1 1
156 2  7.970362091064453e+01  5.175082087516785e-01  3.289598388671875e+02 1 1 1
157 3  7.994939422607422e+01  2.411686629056931e-01  3.285700988769531e+02 1 1 1
158 2  7.998645019531250e+01 -1.267948746681213e-01  3.281803283691406e+02 1 1 1
159 4  7.980069732666016e+01 -4.465869367122650e-01  3.277905578613281e+02 1 1 1
160 1  7.946271514892578e+01 -5.967131257057190e-01  3.274007873535156e+02 1 1 1
161 3  7.910090637207031e+01 -5.201380252838135e-01  3.270110473632812e+02 1 1 1
162 1  7.885272979736328e+01 -2.459538131952286e-01  3.266212768554688e+02 1 1 1
163 2  7.881246948242188e+01  1.216723769903183e-01  3.262315063476562e+02 1 1 1
164 3  7.899542236328125e+01  4.430732131004333e-01  3.258417358398438e+02 1 1 1
165 4  7.933207702636719e+01  5.961431264877319e-01  3.254519958496094e+02 1 1 1
166 3  7.969454193115234e+01  5.227282643318176e-01  3.250622253417969e+02 1 1 1
167 4  7.994510650634766e+01  2.507202327251434e-01  3.246724548339844e+02 1 1 1
168 3  7.998857116699219e+01 -1.165406107902527e-01  3.242826843261719e+02 1 1 1
169 3  7.980843353271484e+01 -4.395257532596588e-01  3.238929443359375e+02 1 1 1
170 1  7.947312164306641e+01 -5.955277085304260e-01  3.235031738281250e+02 1 1 1
171 4  7.911003112792969e+01 -5.252786874771118e-01  3.231134033203125e+02 1 1 1
172 2  7.885710144042969e+01 -2.554675638675690e-01  3.227236328125000e+02 1 1 1
173 1  7.881043243408203e+01  1.113999709486961e-01  3.223338928222656e+02 1 1 1
174 3  7.898774719238281e+01  4.359447956085205e-01  3.219441223144531e+02 1 1 1
175 1  7.932168579101562e+01  5.948669314384460e-01  3.215543518066406e+02 1 1 1
176 4  7.968537139892578e+01  5.277891159057617e-01  3.211645812988281e+02 1 1 1
177 2  7.994064331054688e+01  2.601954638957977e-01  3.207748413085938e+02 1 1 1
178 1  7.999051666259766e+01 -1.062508448958397e-01  3.203850708007812e+02 1 1 1
179 3  7.981604003906250e+01 -4.323306679725647e-01  3.199953002929688e+02 1 1 1
180 1  7.948350524902344e+01 -5.941608548164368e-01  3.196055297851562e+02 1 1 1
181 3  7.911923980712891e+01 -5.302593708038330e-01  3.192157897949219e+02 1 1 1
182 1  7.886164855957031e+01 -2.649035155773163e-01  3.188260192871094e+02 1 1 1
183 4  7.880857849121094e+01  1.010936275124550e-01  3.184362487792969e+02 1 1 1
184 2  7.898020172119141e+01  4.286836087703705e-01  3.180464782714844e+02 1 1 1
185 3  7.931131744384766e+01  5.934095382690430e-01  3.176567382812500e+02 1 1 1
186 1  7.967611694335938e+01  5.326892137527466e-01  3.172669677734375e+02 1 1 1
187 1  7.993601989746094e+01  2.695913910865784e-01  3.168771972656250e+02 1 1 1
188 3  7.999227905273438e+01 -9.592871367931366e-02  3.164874267578125e+02 1 1 1
189 4  7.982352447509766e+01 -4.250039160251617e-01  3.160976867675781e+02 1 1 1
190 4  7.949385833740234e+01 -5.926129817962646e-01  3.157079162597656e+02 1 1 1
191 2  7.912854003906250e+01 -5.350785255432129e-01  3.153181457519531e+02 1 1 1
192 3  7.886634826660156e+01 -2.742587625980377e-01  3.149283752441406e+02 1 1 1
193 4  7.880690002441406e+01  9.075649082660675e-02  3.145386352539062e+02 1 1 1
194 1  7.897278594970703e+01  4.212918281555176e-01  3.141488647460938e+02 1 1 1
195 3  7.930097198486328e+01  5.917713642120361e-01  3.137590942382812e+02 1 1 1
196 2  7.966677856445312e+01  5.374270677566528e-01  3.133693237304688e+02 1 1 1
197 3  7.993123626708984e+01  2.789052128791809e-01  3.129795837402344e+02 1 1 1
198 2  7.999386596679688e+01 -8.557736128568649e-02  3.125898132324219e+02 1 1 1
199 4  7.983087921142578e+01 -4.175476729869843e-01  3.122000427246094e+02 1 1 1
200 1  7.950418853759766e+01 -5.908846259117126e-01  3.118102722167969e+02 1 1 1
201 3  7.913791656494141e+01 -5.397346615791321e-01  3.114205322265625e+02 1 1 1
202 1  7.887121582031250e+01 -2.835304737091064e-01  3.110307617187500e+02 1 1 1
203 2  7.880541229248047e+01  8.039171248674393e-02  3.106409912109375e+02 1 1 1
204 3  7.896549987792969e+01  4.137717187404633e-01  3.102512207031250e+02 1 1 1
205 4  7.929065704345703e+01  5.899529457092285e-01  3.098614807128906e+02 1 1 1
206 3  7.965736389160156e+01  5.420011878013611e-01  3.094717102050781e+02 1 1 1
207 4  7.992628479003906e+01  2.881340980529785e-01  3.090819396972656e+02 1 1 1
208 3  7.999526977539062e+01 -7.519993931055069e-02  3.086921691894531e+02 1 1 1
209 3  7.983809661865234e+01 -4.099642634391785e-01  3.083024291992188e+02 1 1 1
210 1  7.951448822021484e+01 -5.889763236045837e-01  3.079126586914062e+02 1 1 1
211 4  7.914737701416016e+01 -5.442264080047607e-01  3.075228881835938e+02 1 1 1
212 2  7.887624359130859e+01 -2.927157878875732e-01  3.071331176757812e+02 1 1 1
213 1  7.880410003662109e+01  7.000244408845901e-02  3.067433776855469e+02 1 1 1
214 3  7.895834350585938e+01  4.061255753040314e-01  3.063536071777344e+02 1 1 1
215 1  7.928038024902344e+01  5.879548192024231e-01  3.059638366699219e+02 1 1 1
216 4  7.964786529541016e+01  5.464102029800415e-01  3.055740661621094e+02 1 1 1
217 2  7.992118072509766e+01  2.972752153873444e-01  3.051843261718750e+02 1 1 1
218 1  7.999649047851562e+01 -6.479961425065994e-02  3.047945556640625e+02 1 1 1
219 3  7.984518432617188e+01 -4.022559821605682e-01  3.044047851562500e+02 1 1 1
220 1  7.952474975585938e+01 -5.868885517120361e-01  3.040150146484375e+02 1 1 1
221 3  7.915691375732422e+01 -5.485523939132690e-01  3.036252746582031e+02 1 1 1
222 1  7.888143157958984e+01 -3.018119633197784e-01  3.032355041503906e+02 1 1 1
223 4  7.880296325683594e+01  5.959184840321541e-02  3.028457336425781e+02 1 1 1
224 2  7.895132446289062e+01  3.983557224273682e-01  3.024559631347656e+02 1 1 1
225 3  7.927013397216797e+01  5.857775807380676e-01  3.020662231445312e+02 1 1 1
226 1  7.963829040527344e+01  5.506528019905090e-01  3.016764526367188e+02 1 1 1
227 1  7.991590881347656e+01  3.063257634639740e-01  3.012866821289062e+02 1 1 1
228 3  7.999752807617188e+01 -5.437954887747765e-02  3.008969116210938e+02 1 1 1
229 4  7.985213470458984e+01 -3.944251537322998e-01  3.005071716308594e+02 1 1 1
230 4  7.953497314453125e+01 -5.846220254898071e-01  3.001174011230469e+02 1 1 1
231 2  7.916652679443359e+01 -5.527112483978271e-01  2.997276306152344e+02 1 1 1
232 3  7.888677978515625e+01 -3.108161985874176e-01  2.993378601074219e+02 1 1 1
233 4  7.880201721191406e+01  4.916310682892799e-02  2.989481201171875e+02 1 1 1
234 1  7.894443511962891e+01  3.904645442962646e-01  2.985583496093750e+02 1 1 1
235 3  7.925993347167969e+01  5.834219455718994e-01  2.981685791015625e+02 1 1 1
236 2  7.962863922119141e+01  5.547276139259338e-01  2.977788085937500e+02 1 1 1
237 3  7.991048431396484e+01  3.152830004692078e-01  2.973890686035156e+02 1 1 1
238 2  7.999839019775391e+01 -4.394291713833809e-02  2.969992980957031e+02 1 1 1
239 4  7.985895538330078e+01 -3.864741921424866e-01  2.966095275878906e+02 1 1 1
240 1  7.954515075683594e+01 -5.821774601936340e-01  2.962197570800781e+02 1 1 1
241 3  7.917620849609375e+01 -5.567017793655396e-01  2.958300170898438e+02 1 1 1
242 1  7.889228057861328e+01 -3.197257518768311e-01  2.954402465820312e+02 1 1 1
243 2  7.880125427246094e+01  3.871938586235046e-02  2.950504760742188e+02 1 1 1
244 3  7.893769073486328e+01  3.824543952941895e-01  2.946607055664062e+02 1 1 1
245 4  7.924977111816406e+01  5.808885693550110e-01  2.942709655761719e+02 1 1 1
246 3  7.961892700195312e+01  5.586335062980652e-01  2.938811950683594e+02 1 1 1
247 4  7.990490722656250e+01  3.241441845893860e-01  2.934914245605469e+02 1 1 1
248 3  7.999906158447266e+01 -3.349290415644646e-02  2.931016540527344e+02 1 1 1
249 3  7.986563110351562e+01 -3.784054815769196e-01  2.927119140625000e+02 1 1 1
250 1  7.955529022216797e+01 -5.795555114746094e-01  2.923221435546875e+02 1 1 1
251 4  7.918595886230469e+01 -5.605226755142212e-01  2.919323730468750e+02 1 1 1
252 2  7.889794158935547e+01 -3.285379409790039e-01  2.915426025390625e+02 1 1 1
253 1  7.880066680908203e+01  2.826387062668800e-02  2.911528625488281e+02 1 1 1
254 3  7.893109130859375e+01  3.743277490139008e-01  2.907630920410156e+02 1 1 1
255 1  7.923965454101562e+01  5.781782865524292e-01  2.903733215332031e+02 1 1 1
256 4  7.960914611816406e+01  5.623691678047180e-01  2.899835510253906e+02 1 1 1
257 2  7.989916992187500e+01  3.329066634178162e-01  2.895938110351562e+02 1 1 1
258 1  7.999955749511719e+01 -2.303268574178219e-02  2.892040405273438e+02 1 1 1
259 3  7.987216186523438e+01 -3.702215254306793e-01  2.888142700195312e+02 1 1 1
260 1  7.956538391113281e+01 -5.767570137977600e-01  2.884244995117188e+02 1 1 1
261 3  7.919577026367188e+01 -5.641728639602661e-01  2.880347595214844e+02 1 1 1
262 1  7.890375518798828e+01 -3.372500240802765e-01  2.876449890136719e+02 1 1 1
263 4  7.880026245117188e+01  1.779974624514580e-02  2.872552185058594e+02 1 1 1
264 2  7.892462921142578e+01  3.660871088504791e-01  2.868654479980469e+02 1 1 1
265 3  7.922959136962891e+01  5.752918124198914e-01  2.864757080078125e+02 1 1 1
266 1  7.959929656982422e+01  5.659335851669312e-01  2.860859375000000e+02 1 1 1
267 1  7.989328765869141e+01  3.415677249431610e-01  2.856961669921875e+02 1 1 1
268 3  7.999987030029297e+01 -1.256545167416334e-02  2.853063964843750e+02 1 1 1
269 4  7.987854766845703e+01 -3.619247972965240e-01  2.849166564941406e+02 1 1 1
270 4  7.957542419433594e+01 -5.737828612327576e-01  2.845268859863281e+02 1 1 1
271 2  7.920565032958984e+01 -5.676512122154236e-01  2.841371154785156e+02 1 1 1
272 3  7.890971374511719e+01 -3.458593785762787e-01  2.837473449707031e+02 1 1 1
273 4  7.880004119873047e+01  7.330200634896755e-03  2.833576049804688e+02 1 1 1
274 1  7.891831207275391e+01  3.577349185943604e-01  2.829678344726562e+02 1 1 1
275 3  7.921957397460938e+01  5.722301602363586e-01  2.825780639648438e+02 1 1 1
276 2  7.958938598632812e+01  5.693256258964539e-01  2.821882934570312e+02 1 1 1
277 3  7.988725280761719e+01  3.501247167587280e-01  2.817985534667969e+02 1 1 1
278 2  8.000000000000000e+01 -2.094390802085400e-03  2.814087829589844e+02 1 1 1
279 4  7.988479614257812e+01 -3.535178005695343e-01  2.810190124511719e+02 1 1 1
280 1  7.958541107177734e+01 -5.706338882446289e-01  2.806292419433594e+02 1 1 1
281 3  7.921558380126953e+01 -5.709566473960876e-01  2.802395019531250e+02 1 1 1
282 1  7.891582489013672e+01 -3.543634116649628e-01  2.798497314453125e+02 1 1 1
283 2  7.880001068115234e+01 -3.141578286886215e-03  2.794599609375000e+02 1 1 1
284 3  7.891213989257812e+01  3.492737710475922e-01  2.790701904296875e+02 1 1 1
285 4  7.920961761474609e+01  5.689941644668579e-01  2.786804504394531e+02 1 1 1
286 3  7.957942199707031e+01  5.725442171096802e-01  2.782906799316406e+02 1 1 1
287 4  7.988106536865234e+01  3.585750758647919e-01  2.779009094238281e+02 1 1 1
288 3  7.999993896484375e+01  8.377308025956154e-03  2.775111389160156e+02 1 1 1
289 3  7.989089202880859e+01 -3.450031578540802e-01  2.771213989257812e+02 1 1 1
290 1  7.959534454345703e+01 -5.673111677169800e-01  2.767316284179688e+02 1 1 1
291 4  7.922557830810547e+01 -5.740881562232971e-01  2.763418579101562e+02 1 1 1
292 2  7.892208099365234e+01 -3.627594709396362e-01  2.759520874023438e+02 1 1 1
293 1  7.880015563964844e+01 -1.361239980906248e-02  2.755623474121094e+02 1 1 1
294 3  7.890612030029297e+01  3.407062590122223e-01  2.751725769042969e+02 1 1 1
295 1  7.919971466064453e+01  5.655848979949951e-01  2.747828063964844e+02 1 1 1
296 4  7.956940460205078e+01  5.755884051322937e-01  2.743930358886719e+02 1 1 1
297 2  7.987473297119141e+01  3.669162094593048e-01  2.740032958984375e+02 1 1 1
298 1  7.999970245361328e+01  1.884645596146584e-02  2.736135253906250e+02 1 1 1
299 3  7.989683532714844e+01 -3.363834023475647e-01  2.732237548828125e+02 1 1 1
300 1  7.960520935058594e+01 -5.638155937194824e-01  2.728339843750000e+02 1 1 1
301 3  7.923562622070312e+01 -5.770447850227356e-01  2.724442443847656e+02 1 1 1
302 1  7.892848205566406e+01 -3.710450232028961e-01  2.720544738769531e+02 1 1 1
303 4  7.880048370361328e+01 -2.407907508313656e-02  2.716647033691406e+02 1 1 1
304 2  7.890024566650391e+01  3.320349156856537e-01  2.712749328613281e+02 1 1 1
305 3  7.918987274169922e+01  5.620033144950867e-01  2.708851928710938e+02 1 1 1
306 1  7.955933380126953e+01  5.784572362899780e-01  2.704954223632812e+02 1 1 1
307 1  7.986825561523438e+01  3.751455843448639e-01  2.701056518554688e+02 1 1 1
308 3  7.999928283691406e+01  2.930986136198044e-02  2.697158813476562e+02 1 1 1
309 4  7.990263366699219e+01 -3.276611864566803e-01  2.693261413574219e+02 1 1 1
310 4  7.961502075195312e+01 -5.601482391357422e-01  2.689363708496094e+02 1 1 1
311 2  7.924571990966797e+01 -5.798256397247314e-01  2.685466003417969e+02 1 1 1
312 3  7.893503570556641e+01 -3.792175948619843e-01  2.681568298339844e+02 1 1 1
313 4  7.880099487304688e+01 -3.453841432929039e-02  2.677670898437500e+02 1 1 1
314 1  7.889453125000000e+01  3.232624828815460e-01  2.673773193359375e+02 1 1 1
315 3  7.918009948730469e+01  5.582505464553833e-01  2.669875488281250e+02 1 1 1
316 2  7.954921722412109e+01  5.811498761177063e-01  2.665977783203125e+02 1 1 1
317 3  7.986164093017578e+01  3.832606971263885e-01  2.662080383300781e+02 1 1 1
318 2  7.999868011474609e+01  3.976434096693993e-02  2.658182678222656e+02 1 1 1
319 4  7.990827178955078e+01 -3.188391625881195e-01  2.654284973144531e+02 1 1 1
320 1  7.962476348876953e+01 -5.563102960586548e-01  2.650387268066406e+02 1 1 1
321 3  7.925585937500000e+01 -5.824298858642578e-01  2.646489868164062e+02 1 1 1
322 1  7.894171905517578e+01 -3.872746229171753e-01  2.642592163085938e+02 1 1 1
323 2  7.880168914794922e+01 -4.498723521828651e-02  2.638694458007812e+02 1 1 1
324 3  7.888896179199219e+01  3.143915534019470e-01  2.634796752929688e+02 1 1 1
325 4  7.917038726806641e+01  5.543277263641357e-01  2.630899353027344e+02 1 1 1
326 3  7.953904724121094e+01  5.836655497550964e-01  2.627001647949219e+02 1 1 1
327 4  7.985488128662109e+01  3.912590444087982e-01  2.623103942871094e+02 1 1 1
328 3  7.999789428710938e+01  5.020670592784882e-02  2.619206237792969e+02 1 1 1
329 3  7.991375732421875e+01 -3.099199831485748e-01  2.615308837890625e+02 1 1 1
330 1  7.963443756103516e+01 -5.523028969764709e-01  2.611411132812500e+02 1 1 1
331 4  7.926605224609375e+01 -5.848566889762878e-01  2.607513427734375e+02 1 1 1
332 2  7.894854736328125e+01 -3.952136635780334e-01  2.603615722656250e+02 1 1 1
333 1  7.880256652832031e+01 -5.542235076427460e-02  2.599718322753906e+02 1 1 1
334 3  7.888355255126953e+01  3.054248392581940e-01  2.595820617675781e+02 1 1 1
335 1  7.916075134277344e+01  5.502360463142395e-01  2.591922912597656e+02 1 1 1
336 4  7.952883911132812e+01  5.860033631324768e-01  2.588025207519531e+02 1 1 1
337 2  7.984798431396484e+01  3.991382122039795e-01  2.584127807617188e+02 1 1 1
338 1  7.999692535400391e+01  6.063377857208252e-02  2.580230102539062e+02 1 1 1
339 3  7.991909027099609e+01 -3.009064495563507e-01  2.576332397460938e+02 1 1 1
340 1  7.964404296875000e+01 -5.481272935867310e-01  2.572434692382812e+02 1 1 1
341 3  7.927627563476562e+01 -5.871053934097290e-01  2.568537292480469e+02 1 1 1
342 1  7.895552062988281e+01 -4.030323624610901e-01  2.564639587402344e+02 1 1 1
343 4  7.880362701416016e+01 -6.584058701992035e-02  2.560741882324219e+02 1 1 1
344 2  7.887830352783203e+01  2.963651120662689e-01  2.556844329833984e+02 1 1 1
345 3  7.915118408203125e+01  5.459767580032349e-01  2.552946777343750e+02 1 1 1
346 1  7.951859283447266e+01  5.881627202033997e-01  2.549049072265625e+02 1 1 1
347 1  7.984095001220703e+01  4.068958163261414e-01  2.545151519775391e+02 1 1 1
348 3  7.999578094482422e+01  7.104238122701645e-02  2.541253814697266e+02 1 1 1
349 4  7.992426300048828e+01 -2.918012142181396e-01  2.537356262207031e+02 1 1 1
350 4  7.965357208251953e+01 -5.437846779823303e-01  2.533458557128906e+02 1 1 1
351 2  7.928654479980469e+01 -5.891752243041992e-01  2.529561004638672e+02 1 1 1
352 3  7.896261596679688e+01 -4.107282757759094e-01  2.525663299560547e+02 1 1 1
353 4  7.880486297607422e+01 -7.623876631259918e-02  2.521765747070312e+02 1 1 1
354 1  7.887320709228516e+01  2.872151136398315e-01  2.517868041992188e+02 1 1 1
355 3  7.914169311523438e+01  5.415511727333069e-01  2.513970489501953e+02 1 1 1
356 2  7.950830841064453e+01  5.901429057121277e-01  2.510072784423828e+02 1 1 1
357 3  7.983377838134766e+01  4.145294427871704e-01  2.506175231933594e+02 1 1 1
358 2  7.999444580078125e+01  8.142933994531631e-02  2.502277526855469e+02 1 1 1
359 4  7.992927551269531e+01 -2.826071381568909e-01  2.498379974365234e+02 1 1 1
360 1  7.966302490234375e+01 -5.392764210700989e-01  2.494482269287109e+02 1 1 1
361 3  7.929684448242188e+01 -5.910655856132507e-01  2.490584716796875e+02 1 1 1
362 1  7.896985626220703e+01 -4.182990491390228e-01  2.486687011718750e+02 1 1 1
363 2  7.880628204345703e+01 -8.661372214555740e-02  2.482789459228516e+02 1 1 1
364 3  7.886827850341797e+01  2.779776155948639e-01  2.478891754150391e+02 1 1 1
365 4  7.913227844238281e+01  5.369606018066406e-01  2.474994201660156e+02 1 1 1
366 3  7.949799346923828e+01  5.919433236122131e-01  2.471096496582031e+02 1 1 1
367 4  7.982647705078125e+01  4.220368266105652e-01  2.467198944091797e+02 1 1 1