# LAMMPS data file
2000 atoms
2000 ellipsoids
1980 bonds

4 atom types
1 bond types

# System size
-500.000000 500.000000 xlo xhi
-500.000000 500.000000 ylo yhi
-500.000000 500.000000 zlo zhi

Masses

1 3.1575
2 3.1575
3 3.1575
4 3.1575

# Atom-ID, type, position, molecule-ID, ellipsoid flag, density
Atoms

1 3 -6.000000000000001e-01  0.000000000000000e+00  0.000000000000000e+00 1 1 1
2 3 -4.966998192596419e-01 -3.365847434858556e-01  3.897628551303122e-01 1 1 1
3 4 -2.223690348418695e-01 -5.572719375165913e-01  7.795257102606244e-01 1 1 1
4 2  1.285309545433167e-01 -5.860714919906821e-01  1.169288565390937e+00 1 1 1
5 3  4.351733744783183e-01 -4.130667429667434e-01  1.559051420521249e+00 1 1 1
6 4  5.919708336233138e-01 -9.782909658848570e-02  1.948814275651561e+00 1 1 1
7 4  5.449326457472798e-01  2.510944276539605e-01  2.338577130781873e+00 1 1 1
8 4  3.102556552145273e-01  5.135576193645702e-01  2.728339985912185e+00 1 1 1
9 4 -3.125288618282177e-02  5.991854947386862e-01  3.118102841042497e+00 1 1 1
10 4 -3.619999982756931e-01  4.784934704344447e-01  3.507865696172809e+00 1 1 1
11 4 -5.680982262022697e-01  1.930399062003385e-01  3.897628551303121e+00 1 1 1
12 1 -5.785809559789418e-01 -1.588838487024235e-01  4.287391406433434e+00 1 1 1
13 3 -3.898386280037675e-01 -4.560985026462387e-01  4.677154261563746e+00 1 1 1
14 3 -6.686163092071826e-02 -5.962629640608432e-01  5.066917116694059e+00 1 1 1
15 4  2.791380946913486e-01 -5.311138522878918e-01  5.456679971824371e+00 1 1 1
16 1  5.290211015262971e-01 -2.830842173981165e-01  5.846442826954684e+00 1 1 1
17 1  5.967441903508127e-01  6.242092023155309e-02  6.236205682084996e+00 1 1 1
18 4  4.589880034453360e-01  3.864324167215596e-01  6.625968537215309e+00 1 1 1
19 3  1.631866708279948e-01  5.773821182406644e-01  7.015731392345621e+00 1 1 1
20 3 -1.888053704258438e-01  5.695195625247310e-01  7.405494247475934e+00 1 1 1
21 3 -4.757853153805494e-01  3.655520943288827e-01  7.795257102606246e+00 1 1 1
22 2 -5.989362300938580e-01  3.571263475240086e-02  8.185019957736559e+00 1 1 1
23 1 -5.158530754050190e-01 -3.064238969062058e-01  8.574782812866871e+00 1 1 1
24 2 -2.551442009668198e-01 -5.430482821195592e-01  8.964545667997184e+00 1 1 1
25 3  9.341948038713538e-02 -5.926827150206078e-01  9.354308523127496e+00 1 1 1
26 2  4.098156643788858e-01 -4.382363759772730e-01  9.744071378257809e+00 1 1 1
27 1  5.850984077020733e-01 -1.328903807824320e-01  1.013383423338812e+01 1 1 1
28 1  5.589119134701944e-01  2.182142822573432e-01  1.052359708851843e+01 1 1 1
29 1  3.402730803069471e-01  4.941803626394148e-01  1.091335994364875e+01 1 1 1
30 2  4.466678154412874e-03  5.999833737581954e-01  1.130312279877906e+01 1 1 1
31 4 -3.328777528669876e-01  4.991917483755379e-01  1.169288565390937e+01 1 1 1
32 1 -5.556010771030411e-01  2.265114635552521e-01  1.208264850903968e+01 1 1 1
33 2 -5.870120957248218e-01 -1.241644050151024e-01  1.247241136417000e+01 1 1 1
34 4 -4.162949290627674e-01 -4.320862553201933e-01  1.286217421930031e+01 1 1 1
35 3 -1.022332910224514e-01 -5.912261447252823e-01  1.325193707443062e+01 1 1 1
36 2  2.470307384855342e-01 -5.467868087685487e-01  1.364169992956093e+01 1 1 1
37 4  5.112337015469203e-01 -3.140702189043659e-01  1.403146278469125e+01 1 1 1
38 1  5.994015520404424e-01  2.679140555309989e-02  1.442122563982156e+01 1 1 1
39 2  4.811751069945349e-01  3.584278398908208e-01  1.481098849495187e+01 1 1 1
40 1  1.972637435476385e-01  5.666454054182153e-01  1.520075135008218e+01 1 1 1
41 1 -1.545722211058937e-01  5.797477282942926e-01  1.559051420521250e+01 1 1 1
42 2 -4.531837245005013e-01  3.932232341149947e-01  1.598027706034281e+01 1 1 1
43 4 -5.957486923968072e-01  7.129863608440645e-02  1.637003991547312e+01 1 1 1
44 2 -5.331771682917057e-01 -2.751765019263826e-01  1.675980277060343e+01 1 1 1
45 1 -2.870146513493855e-01 -5.268990319888555e-01  1.714956562573374e+01 1 1 1
46 1  5.797675012467596e-02 -5.971923445967665e-01  1.753932848086405e+01 1 1 1
47 1  3.830047890433455e-01 -4.618520667593302e-01  1.792909133599436e+01 1 1 1
48 3  5.761512815200138e-01 -1.674804490167378e-01  1.831885419112468e+01 1 1 1
49 4  5.709093356139942e-01  1.845603709055391e-01  1.870861704625499e+01 1 1 1
50 2  3.690839311903631e-01  4.730507919209836e-01  1.909837990138530e+01 1 1 1
51 2  4.017040409897726e-02  5.986537719204041e-01  1.948814275651561e+01 1 1 1
52 4 -3.025751563385338e-01  5.181199424522417e-01  1.987790561164592e+01 1 1 1
53 2 -5.411338223183361e-01  2.591798339824107e-01  2.026766846677623e+01 1 1 1
54 3 -5.933617494641217e-01 -8.900468680288386e-02  2.065743132190654e+01 1 1 1
55 2 -4.412750900630442e-01 -4.065418734765888e-01  2.104719417703685e+01 1 1 1
56 3 -1.372424421295324e-01 -5.840928967881091e-01  2.143695703216716e+01 1 1 1
57 4  2.140474360614089e-01 -5.605209140750591e-01  2.182671988729747e+01 1 1 1
58 1  4.916335181451710e-01 -3.439425589196611e-01  2.221648274242778e+01 1 1 1
59 2  5.999334959542186e-01 -8.933108761922172e-03  2.260624559755809e+01 1 1 1
60 2  5.016560118823804e-01  3.291523138947496e-01  2.299600845268840e+01 1 1 1
61 3  2.306413388207517e-01  5.538994248299722e-01  2.338577130781871e+01 1 1 1
62 4 -1.197909741954833e-01  5.879201667754730e-01  2.377553416294903e+01 1 1 1
63 2 -4.289751895935282e-01  4.195000437582808e-01  2.416529701807934e+01 1 1 1
64 4 -5.904486895977702e-01  1.066318196050266e-01  2.455505987320965e+01 1 1 1
65 4 -5.486106684241546e-01 -2.429533586744693e-01  2.494482272833996e+01 1 1 1
66 3 -3.178673765695260e-01 -5.088814507454661e-01  2.533458558347027e+01 1 1 1
67 4  2.232844012208784e-02 -5.995843900250553e-01  2.572434843860058e+01 1 1 1
68 3  3.548358171461619e-01 -4.838300764423589e-01  2.611411129373089e+01 1 1 1
69 4  5.651611806890653e-01 -2.014766483792725e-01  2.650387414886120e+01 1 1 1
70 1  5.808823705232531e-01  1.502520269922820e-01  2.689363700399151e+01 1 1 1
71 3  3.965860474776418e-01  4.502438305474769e-01  2.728339985912182e+01 1 1 1
72 3  7.573168982021475e-02  5.952014038600533e-01  2.767316271425213e+01 1 1 1
73 2 -2.711996586578820e-01  5.352109351871015e-01  2.806292556938244e+01 1 1 1
74 2 -5.247477612823700e-01  2.909291787173374e-01  2.845268842451275e+01 1 1 1
75 1 -5.976074019616341e-01 -5.352936689957659e-02  2.884245127964306e+01 1 1 1
76 4 -4.646905338595226e-01 -3.795559349310132e-01  2.923221413477338e+01 1 1 1
77 3 -1.717649453040037e-01 -5.748885140309522e-01  2.962197698990369e+01 1 1 1
78 4  1.803051429007197e-01 -5.722674684477136e-01  3.001173984503400e+01 1 1 1
79 1  4.702900516052416e-01 -3.725953131228881e-01  3.040150270016431e+01 1 1 1
80 2  5.983381358723842e-01 -4.462594716938028e-02  3.079126555529462e+01 1 1 1
81 2  5.203580948746390e-01  2.987096468118165e-01  3.118102841042493e+01 1 1 1
82 1  2.632011030426984e-01  5.391893724445159e-01  3.157079126555524e+01 1 1 1
83 1 -8.458496050715027e-02  5.940078993212194e-01  3.196055412068555e+01 1 1 1
84 2 -4.032455516959834e-01  4.442893483276481e-01  3.235031697581586e+01 1 1 1
85 4 -5.830550149750148e-01  1.415868973898700e-01  3.274007983094618e+01 1 1 1
86 4 -5.620988501590752e-01 -2.098687271840418e-01  3.312984268607649e+01 1 1 1
87 4 -3.475929759585358e-01 -4.890594269250856e-01  3.351960554120681e+01 1 1 1
88 3 -1.339904428934388e-02 -5.998503693523383e-01  3.390936839633712e+01 1 1 1
89 3  3.254086330359723e-01 -5.040924732087003e-01  3.429913125146744e+01 1 1 1
90 4  5.521670750043258e-01 -2.347584317573528e-01  3.468889410659775e+01 1 1 1
91 1  5.887956548166068e-01  1.154109044635201e-01  3.507865696172806e+01 1 1 1
92 1  4.226819094232442e-01  4.258403497160936e-01  3.546841981685838e+01 1 1 1
93 4  1.110244385662122e-01  5.896385113279679e-01  3.585818267198869e+01 1 1 1
94 3 -2.388625141924416e-01  5.504041236343260e-01  3.624794552711901e+01 1 1 1
95 3 -5.065009973238435e-01  3.216469177684697e-01  3.663770838224932e+01 1 1 1
96 4 -5.997339985594964e-01 -1.786423723092686e-02  3.702747123737964e+01 1 1 1
97 1 -4.864582316373702e-01 -3.512241291145121e-01  3.741723409250995e+01 1 1 1
98 1 -2.056783872126595e-01 -5.636456342717507e-01  3.780699694764026e+01 1 1 1
99 1  1.459235057902283e-01 -5.819848197830371e-01  3.819675980277058e+01 1 1 1
100 1  4.472789837184584e-01 -3.999268817218817e-01  3.858652265790089e+01 1 1 1
101 4 -4.472789837184584e-01  3.999268817218817e-01  3.858652265790089e+01 2 1 1
102 4 -1.459235057902283e-01  5.819848197830372e-01  3.819675980277058e+01 2 1 1
103 4  2.056783872126595e-01  5.636456342717510e-01  3.780699694764026e+01 2 1 1
104 4  4.864582316373704e-01  3.512241291145123e-01  3.741723409250995e+01 2 1 1
105 1  5.997339985594966e-01  1.786423723092696e-02  3.702747123737964e+01 2 1 1
106 2  5.065009973238438e-01 -3.216469177684697e-01  3.663770838224932e+01 2 1 1
107 2  2.388625141924419e-01 -5.504041236343263e-01  3.624794552711901e+01 2 1 1
108 1 -1.110244385662122e-01 -5.896385113279684e-01  3.585818267198869e+01 2 1 1
109 4 -4.226819094232446e-01 -4.258403497160942e-01  3.546841981685838e+01 2 1 1
110 4 -5.887956548166074e-01 -1.154109044635204e-01  3.507865696172806e+01 2 1 1
111 1 -5.521670750043267e-01  2.347584317573529e-01  3.468889410659775e+01 2 1 1
112 2 -3.254086330359729e-01  5.040924732087010e-01  3.429913125146744e+01 2 1 1
113 2  1.339904428934378e-02  5.998503693523392e-01  3.390936839633712e+01 2 1 1
114 1  3.475929759585363e-01  4.890594269250864e-01  3.351960554120681e+01 2 1 1
115 1  5.620988501590762e-01  2.098687271840422e-01  3.312984268607649e+01 2 1 1
116 1  5.830550149750158e-01 -1.415868973898703e-01  3.274007983094618e+01 2 1 1
117 3  4.032455516959841e-01 -4.442893483276489e-01  3.235031697581586e+01 2 1 1
118 4  8.458496050715036e-02 -5.940078993212207e-01  3.196055412068555e+01 2 1 1
119 4 -2.632011030426991e-01 -5.391893724445170e-01  3.157079126555524e+01 2 1 1
120 3 -5.203580948746404e-01 -2.987096468118171e-01  3.118102841042493e+01 2 1 1
121 3 -5.983381358723856e-01  4.462594716938052e-02  3.079126555529462e+01 2 1 1
122 4 -4.702900516052428e-01  3.725953131228892e-01  3.040150270016431e+01 2 1 1
123 1 -1.803051429007201e-01  5.722674684477153e-01  3.001173984503400e+01 2 1 1
124 2  1.717649453040044e-01  5.748885140309539e-01  2.962197698990369e+01 2 1 1
125 1  4.646905338595242e-01  3.795559349310142e-01  2.923221413477338e+01 2 1 1
126 4  5.976074019616361e-01  5.352936689957659e-02  2.884245127964307e+01 2 1 1
127 3  5.247477612823717e-01 -2.909291787173385e-01  2.845268842451276e+01 2 1 1
128 3  2.711996586578829e-01 -5.352109351871035e-01  2.806292556938245e+01 2 1 1
129 2 -7.573168982021519e-02 -5.952014038600555e-01  2.767316271425214e+01 2 1 1
130 2 -3.965860474776434e-01 -4.502438305474786e-01  2.728339985912183e+01 2 1 1
131 4 -5.808823705232555e-01 -1.502520269922825e-01  2.689363700399151e+01 2 1 1
132 1 -5.651611806890676e-01  2.014766483792735e-01  2.650387414886120e+01 2 1 1
133 2 -3.548358171461633e-01  4.838300764423610e-01  2.611411129373089e+01 2 1 1
134 1 -2.232844012208777e-02  5.995843900250579e-01  2.572434843860058e+01 2 1 1
135 2  3.178673765695276e-01  5.088814507454684e-01  2.533458558347027e+01 2 1 1
136 1  5.486106684241573e-01  2.429533586744703e-01  2.494482272833996e+01 2 1 1
137 1  5.904486895977732e-01 -1.066318196050273e-01  2.455505987320965e+01 2 1 1
138 3  4.289751895935302e-01 -4.195000437582830e-01  2.416529701807934e+01 2 1 1
139 1  1.197909741954836e-01 -5.879201667754761e-01  2.377553416294903e+01 2 1 1
140 2 -2.306413388207531e-01 -5.538994248299750e-01  2.338577130781872e+01 2 1 1
141 3 -5.016560118823833e-01 -3.291523138947511e-01  2.299600845268841e+01 2 1 1
142 3 -5.999334959542219e-01  8.933108761922505e-03  2.260624559755810e+01 2 1 1
143 4 -4.916335181451736e-01  3.439425589196632e-01  2.221648274242779e+01 2 1 1
144 1 -2.140474360614099e-01  5.605209140750623e-01  2.182671988729748e+01 2 1 1
145 2  1.372424421295335e-01  5.840928967881124e-01  2.143695703216716e+01 2 1 1
146 3  4.412750900630471e-01  4.065418734765911e-01  2.104719417703685e+01 2 1 1
147 2  5.933617494641253e-01  8.900468680288413e-02  2.065743132190654e+01 2 1 1
148 3  5.411338223183394e-01 -2.591798339824126e-01  2.026766846677623e+01 2 1 1
149 1  3.025751563385356e-01 -5.181199424522450e-01  1.987790561164592e+01 2 1 1
150 3 -4.017040409897776e-02 -5.986537719204080e-01  1.948814275651561e+01 2 1 1
151 3 -3.690839311903657e-01 -4.730507919209864e-01  1.909837990138530e+01 2 1 1
152 1 -5.709093356139979e-01 -1.845603709055400e-01  1.870861704625499e+01 2 1 1
153 2 -5.761512815200176e-01  1.674804490167392e-01  1.831885419112468e+01 2 1 1
154 4 -3.830047890433478e-01  4.618520667593335e-01  1.792909133599437e+01 2 1 1
155 4 -5.797675012467600e-02  5.971923445967707e-01  1.753932848086406e+01 2 1 1
156 4  2.870146513493879e-01  5.268990319888590e-01  1.714956562573375e+01 2 1 1
157 3  5.331771682917096e-01  2.751765019263842e-01  1.675980277060344e+01 2 1 1
158 1  5.957486923968114e-01 -7.129863608440735e-02  1.637003991547313e+01 2 1 1
159 3  4.531837245005043e-01 -3.932232341149979e-01  1.598027706034281e+01 2 1 1
160 4  1.545722211058946e-01 -5.797477282942970e-01  1.559051420521250e+01 2 1 1
161 4 -1.972637435476403e-01 -5.666454054182195e-01  1.520075135008219e+01 2 1 1
162 3 -4.811751069945388e-01 -3.584278398908233e-01  1.481098849495188e+01 2 1 1
163 4 -5.994015520404472e-01 -2.679140555309976e-02  1.442122563982156e+01 2 1 1
164 1 -5.112337015469243e-01  3.140702189043687e-01  1.403146278469125e+01 2 1 1
165 3 -2.470307384855358e-01  5.467868087685533e-01  1.364169992956094e+01 2 1 1
166 2  1.022332910224527e-01  5.912261447252872e-01  1.325193707443063e+01 2 1 1
167 1  4.162949290627712e-01  4.320862553201966e-01  1.286217421930031e+01 2 1 1
168 3  5.870120957248268e-01  1.241644050151031e-01  1.247241136417000e+01 2 1 1
169 4  5.556010771030457e-01 -2.265114635552544e-01  1.208264850903969e+01 2 1 1
170 1  3.328777528669902e-01 -4.991917483755425e-01  1.169288565390938e+01 2 1 1
171 3 -4.466678154413274e-03 -5.999833737582009e-01  1.130312279877906e+01 2 1 1
172 4 -3.402730803069505e-01 -4.941803626394191e-01  1.091335994364875e+01 2 1 1
173 4 -5.589119134701998e-01 -2.182142822573448e-01  1.052359708851844e+01 2 1 1
174 4 -5.850984077020788e-01  1.328903807824337e-01  1.013383423338813e+01 2 1 1
175 3 -4.098156643788894e-01  4.382363759772775e-01  9.744071378257813e+00 2 1 1
176 2 -9.341948038713592e-02  5.926827150206136e-01  9.354308523127500e+00 2 1 1
177 3  2.551442009668227e-01  5.430482821195644e-01  8.964545667997188e+00 2 1 1
178 4  5.158530754050243e-01  3.064238969062084e-01  8.574782812866875e+00 2 1 1
179 3  5.989362300938640e-01 -3.571263475240162e-02  8.185019957736563e+00 2 1 1
180 2  4.757853153805539e-01 -3.655520943288867e-01  7.795257102606250e+00 2 1 1
181 2  1.888053704258454e-01 -5.695195625247370e-01  7.405494247475938e+00 2 1 1
182 2 -1.631866708279970e-01 -5.773821182406704e-01  7.015731392345625e+00 2 1 1
183 1 -4.589880034453412e-01 -3.864324167215634e-01  6.625968537215313e+00 2 1 1
184 4 -5.967441903508192e-01 -6.242092023155332e-02  6.236205682085000e+00 2 1 1
185 4 -5.290211015263028e-01  2.830842173981200e-01  5.846442826954688e+00 2 1 1
186 1 -2.791380946913514e-01  5.311138522878979e-01  5.456679971824375e+00 2 1 1
187 2  6.686163092071938e-02  5.962629640608499e-01  5.066917116694063e+00 2 1 1
188 2  3.898386280037721e-01  4.560985026462437e-01  4.677154261563750e+00 2 1 1
189 4  5.785809559789484e-01  1.588838487024250e-01  4.287391406433438e+00 2 1 1
190 1  5.680982262022761e-01 -1.930399062003411e-01  3.897628551303125e+00 2 1 1
191 1  3.619999982756971e-01 -4.784934704344506e-01  3.507865696172813e+00 2 1 1
192 1  3.125288618282180e-02 -5.991854947386933e-01  3.118102841042501e+00 2 1 1
193 1 -3.102556552145313e-01 -5.135576193645763e-01  2.728339985912189e+00 2 1 1
194 1 -5.449326457472867e-01 -2.510944276539632e-01  2.338577130781877e+00 2 1 1
195 1 -5.919708336233210e-01  9.782909658848719e-02  1.948814275651565e+00 2 1 1
196 2 -4.351733744783235e-01  4.130667429667487e-01  1.559051420521253e+00 2 1 1
197 3 -1.285309545433180e-01  5.860714919906895e-01  1.169288565390940e+00 2 1 1
198 1  2.223690348418726e-01  5.572719375165982e-01  7.795257102606281e-01 2 1 1
199 2  4.966998192596485e-01  3.365847434858596e-01  3.897628551303159e-01 2 1 1
200 2  6.000000000000079e-01 -2.997602166487923e-16  3.663735981263017e-15 2 1 1
201 3  1.116532443829678e+02 -3.260204708694154e+02 -1.384867592469206e+02 3 1 1
202 3  1.118572056182030e+02 -3.261246846083856e+02 -1.380140916985751e+02 3 1 1
203 4  1.122259431533257e+02 -3.261542422788697e+02 -1.376412186981648e+02 3 1 1
204 2  1.126684498853556e+02 -3.260311662810796e+02 -1.373864337084108e+02 3 1 1
205 3  1.130683174734007e+02 -3.257300359669597e+02 -1.372273684825541e+02 3 1 1
206 4  1.133238196808364e+02 -3.252867408319829e+02 -1.371086952107989e+02 3 1 1
207 4  1.133829401707367e+02 -3.247861225439198e+02 -1.369611777628189e+02 3 1 1
208 4  1.132612834958941e+02 -3.243327610774561e+02 -1.367255120370124e+02 3 1 1
209 4  1.130367019217398e+02 -3.240149642799026e+02 -1.363727463752156e+02 3 1 1
210 4  1.128224882493772e+02 -3.238743604825687e+02 -1.359142506011064e+02 3 1 1
211 4  1.127283652594796e+02 -3.238915644536017e+02 -1.353978010040680e+02 3 1 1
212 1  1.128227044353741e+02 -3.239928523911671e+02 -1.348911293414273e+02 3 1 1
213 3  1.131089833410909e+02 -3.240755475302967e+02 -1.344586004958763e+02 3 1 1
214 3  1.135245881780541e+02 -3.240433752374851e+02 -1.341390494620870e+02 3 1 1
215 4  1.139623738407804e+02 -3.238396136341626e+02 -1.339324091401493e+02 3 1 1
216 1  1.143075576127521e+02 -3.234666248643891e+02 -1.337997334403470e+02 3 1 1
217 1  1.144772427509579e+02 -3.229850417284932e+02 -1.336766077435143e+02 3 1 1
218 4  1.144489626476787e+02 -3.224928897522962e+02 -1.334953290403756e+02 3 1 1
219 3  1.142684168459478e+02 -3.220918336719970e+02 -1.332082183751955e+02 3 1 1
220 3  1.140337351360337e+02 -3.218521708154249e+02 -1.328040383282618e+02 3 1 1
221 3  1.138616881385382e+02 -3.217886253464713e+02 -1.323118624408435e+02 3 1 1
222 2  1.138474792170178e+02 -3.218552782357864e+02 -1.317910642082976e+02 3 1 1
223 1  1.140319627291095e+02 -3.219613787408823e+02 -1.313108727707308e+02 3 1 1
224 2  1.143875764847707e+02 -3.220025929664716e+02 -1.309265349707144e+02 3 1 1
225 3  1.148278323436556e+02 -3.218969295652690e+02 -1.306602919905411e+02 3 1 1
226 2  1.152370970168813e+02 -3.216129721413035e+02 -1.304937209583894e+02 3 1 1
227 1  1.155104085324979e+02 -3.211806969811918e+02 -1.303740785682863e+02 3 1 1
228 1  1.155896182043995e+02 -3.206811512013871e+02 -1.302324623902406e+02 3 1 1
229 1  1.154834131982731e+02 -3.202185454755851e+02 -1.300075363151478e+02 3 1 1
230 2  1.152643252456462e+02 -3.198843707632981e+02 -1.296666506586448e+02 3 1 1
231 4  1.150437555072998e+02 -3.197258948676760e+02 -1.292170845554293e+02 3 1 1
232 1  1.149336153731237e+02 -3.197298865268107e+02 -1.287035395061602e+02 3 1 1
233 2  1.150077915727746e+02 -3.198271713862246e+02 -1.281927471337995e+02 3 1 1
234 4  1.152767044672502e+02 -3.199164510766048e+02 -1.277504912212352e+02 3 1 1
235 3  1.156837199649744e+02 -3.198991836799982e+02 -1.274189561224077e+02 3 1 1
236 2  1.161246505614501e+02 -3.197135150562622e+02 -1.272022012576886e+02 3 1 1
237 4  1.164836306327437e+02 -3.193555773225854e+02 -1.270647633176865e+02 3 1 1
238 1  1.166730129017990e+02 -3.188808206967992e+02 -1.269438674841465e+02 3 1 1
239 2  1.166635483703075e+02 -3.183849201056310e+02 -1.267710429301894e+02 3 1 1
240 1  1.164944577414143e+02 -3.179708310606267e+02 -1.264956996496182e+02 3 1 1
241 1  1.162599264006397e+02 -3.177133385816475e+02 -1.261025483128642e+02 3 1 1
242 2  1.160766731913877e+02 -3.176333061766423e+02 -1.256168649020134e+02 3 1 1
243 4  1.160437601562144e+02 -3.176904918278410e+02 -1.250957873324132e+02 3 1 1
244 2  1.162084821138265e+02 -3.177974046841176e+02 -1.246086409293977e+02 3 1 1
245 1  1.165500814480130e+02 -3.178494311301055e+02 -1.242130673661645e+02 3 1 1
246 1  1.169868956593324e+02 -3.177608568041147e+02 -1.239351766795764e+02 3 1 1
247 1  1.174044765349537e+02 -3.174943809616473e+02 -1.237605566984048e+02 3 1 1
248 3  1.176949985522252e+02 -3.170739603875587e+02 -1.236392356429718e+02 3 1 1
249 4  1.177943868652690e+02 -3.165765602620395e+02 -1.235028891047261e+02 3 1 1
250 2  1.177043804488486e+02 -3.161056524372005e+02 -1.232883664587507e+02 3 1 1
251 2  1.174919333103435e+02 -3.157555865669908e+02 -1.229594357669886e+02 3 1 1
252 4  1.172661599528713e+02 -3.155791023195121e+02 -1.225192596640759e+02 3 1 1
253 2  1.171407635489757e+02 -3.155691693195285e+02 -1.220093063549101e+02 3 1 1
254 3  1.171948840797116e+02 -3.156614079452414e+02 -1.214950707044470e+02 3 1 1
255 2  1.174458477534894e+02 -3.157562574168489e+02 -1.210435221330757e+02 3 1 1
256 3  1.178432010045404e+02 -3.157532579517065e+02 -1.207000447725178e+02 3 1 1
257 4  1.182860833677930e+02 -3.155856424766748e+02 -1.204728101691286e+02 3 1 1
258 1  1.186579571597779e+02 -3.152433267971953e+02 -1.203299635431793e+02 3 1 1
259 2  1.188667353578458e+02 -3.147763819276925e+02 -1.202105924705348e+02 3 1 1
260 2  1.188764902871129e+02 -3.142777929421072e+02 -1.200457010973955e+02 3 1 1
261 3  1.187198247381574e+02 -3.138514410574158e+02 -1.197819677541900e+02 3 1 1
262 4  1.184866457198219e+02 -3.135763338053332e+02 -1.194001054159221e+02 3 1 1
263 2  1.182932064250025e+02 -3.134794000579592e+02 -1.189215028793977e+02 3 1 1
264 4  1.182420763111891e+02 -3.135262175032618e+02 -1.184008598746386e+02 3 1 1
265 4  1.183868229554755e+02 -3.136328654152585e+02 -1.179073520915568e+02 3 1 1
266 3  1.187135669199067e+02 -3.136948214078893e+02 -1.175008116423852e+02 3 1 1
267 4  1.191457609129772e+02 -3.136229520395880e+02 -1.172111248349853e+02 3 1 1
268 3  1.195705476197896e+02 -3.133742044820279e+02 -1.170279413028347e+02 3 1 1
269 4  1.198776203054775e+02 -3.129664310699476e+02 -1.169042379874687e+02 3 1 1
270 1  1.199972051673672e+02 -3.124722421364664e+02 -1.167725107732748e+02 3 1 1
271 3  1.199240868230684e+02 -3.119940038113020e+02 -1.165680184453043e+02 3 1 1
272 3  1.197194041436188e+02 -3.116285898884321e+02 -1.162510752866245e+02 3 1 1
273 2  1.194895980653901e+02 -3.114340248913378e+02 -1.158207162174246e+02 3 1 1
274 2  1.193497603635361e+02 -3.114095042604604e+02 -1.153150291047459e+02 3 1 1
275 1  1.193840036480758e+02 -3.114956713903611e+02 -1.147980398173169e+02 3 1 1
276 4  1.196164985378352e+02 -3.115950561232871e+02 -1.143376659461809e+02 3 1 1
277 3  1.200031508961361e+02 -3.116056370322144e+02 -1.139823304732621e+02 3 1 1
278 4  1.204467849384242e+02 -3.114559708603504e+02 -1.137442880954163e+02 3 1 1
279 1  1.208306041526293e+02 -3.111297928589320e+02 -1.135954055164306e+02 3 1 1
280 2  1.210584083018544e+02 -3.106716172921822e+02 -1.134768486956351e+02 3 1 1
281 2  1.210877184305712e+02 -3.101714096655107e+02 -1.133193414046863e+02 3 1 1
282 1  1.209444038105662e+02 -3.097336085489497e+02 -1.130670193839300e+02 3 1 1
283 1  1.207137742727697e+02 -3.094411638332857e+02 -1.126966663027982e+02 3 1 1
284 2  1.205112051374096e+02 -3.093269742676902e+02 -1.122257079302892e+02 3 1 1
285 4  1.204424095759025e+02 -3.093625593039350e+02 -1.117062118513434e+02 3 1 1
286 4  1.205670379784741e+02 -3.094678659156569e+02 -1.112069588303932e+02 3 1 1
287 4  1.208781383005207e+02 -3.095388335719987e+02 -1.107897592600391e+02 3 1 1
288 3  1.213045498874891e+02 -3.094832258097604e+02 -1.104881697452915e+02 3 1 1
289 3  1.217354065031336e+02 -3.092523903777973e+02 -1.102959384256957e+02 3 1 1
290 4  1.220583113369896e+02 -3.088580118581424e+02 -1.101691577030483e+02 3 1 1
291 1  1.221980390404926e+02 -3.083680882678867e+02 -1.100413831174980e+02 3 1 1
292 1  1.221424383673212e+02 -3.078835170343276e+02 -1.098465124299187e+02 3 1 1
293 4  1.219466162598680e+02 -3.075033525867152e+02 -1.095415468660726e+02 3 1 1
294 3  1.217139626588754e+02 -3.072906985547704e+02 -1.091213970537787e+02 3 1 1
295 3  1.215605498382180e+02 -3.072509790474995e+02 -1.086206354664661e+02 3 1 1
296 4  1.215751647820013e+02 -3.073300709483919e+02 -1.081015919473281e+02 3 1 1
297 1  1.217887368128772e+02 -3.074329403411461e+02 -1.076328914290974e+02 3 1 1
298 1  1.221636875766434e+02 -3.074563659121044e+02 -1.072658240408644e+02 3 1 1
299 1  1.226068705448470e+02 -3.073244815514429e+02 -1.070166841760595e+02 3 1 1
300 1  1.230016445255325e+02 -3.070148996293618e+02 -1.068611597798319e+02 3 1 1
301 4  1.221397990502802e+02 -3.062081369140304e+02 -1.070764649073560e+02 4 1 1
302 4  1.223256958914959e+02 -3.062923581215738e+02 -1.075604323161282e+02 4 1 1
303 4  1.225600017202295e+02 -3.065542768905370e+02 -1.079507842563233e+02 4 1 1
304 4  1.227260753445257e+02 -3.069715055911199e+02 -1.082232086730902e+02 4 1 1
305 1  1.227307702359317e+02 -3.074681781134988e+02 -1.083939999598595e+02 4 1 1
306 2  1.225365080402451e+02 -3.079410731440158e+02 -1.085144482457214e+02 4 1 1
307 2  1.221742180801177e+02 -3.082951567663696e+02 -1.086531784634087e+02 4 1 1
308 1  1.217326873396553e+02 -3.084763058640494e+02 -1.088725204561147e+02 4 1 1
309 4  1.213279880927321e+02 -3.084899445460617e+02 -1.092070466972686e+02 4 1 1
310 4  1.210635102800907e+02 -3.083991764421272e+02 -1.096516678146891e+02 4 1 1
311 1  1.209943608441238e+02 -3.083030559814961e+02 -1.101633850341388e+02 4 1 1
312 2  1.211083885385099e+02 -3.083024805914659e+02 -1.106760961164913e+02 4 1 1
313 2  1.213303680146845e+02 -3.084654482891274e+02 -1.111233566018954e+02 4 1 1
314 1  1.215479024621829e+02 -3.088036436565138e+02 -1.114612588921477e+02 4 1 1
315 1  1.216501256447595e+02 -3.092684144424802e+02 -1.116835511267935e+02 4 1 1
316 1  1.215658769078612e+02 -3.097675241838268e+02 -1.118237899108433e+02 4 1 1
317 3  1.212882042068842e+02 -3.101969123496962e+02 -1.119437856368973e+02 4 1 1
318 4  1.208767579320542e+02 -3.104765259137254e+02 -1.121123190693882e+02 4 1 1
319 4  1.204372512547878e+02 -3.105778843276860e+02 -1.123814577932564e+02 4 1 1
320 3  1.200850594953128e+02 -3.105338863407497e+02 -1.127686275775000e+02 4 1 1
321 3  1.199054924845597e+02 -3.104274818437028e+02 -1.132506120915512e+02 4 1 1
322 4  1.199244194943148e+02 -3.103631094065776e+02 -1.137715470757556e+02 4 1 1
323 1  1.200993615690500e+02 -3.104307345347839e+02 -1.142621563017698e+02 4 1 1
324 2  1.203341184718682e+02 -3.106748714925445e+02 -1.146636057289239e+02 4 1 1
325 1  1.205118936906991e+02 -3.110792555310965e+02 -1.149477620610051e+02 4 1 1
326 4  1.205355114409886e+02 -3.115724433936472e+02 -1.151268799948690e+02 4 1 1
327 3  1.203608775860584e+02 -3.120524136531725e+02 -1.152493825124399e+02 4 1 1
328 3  1.200121627447344e+02 -3.124216961519197e+02 -1.153831872047611e+02 4 1 1
329 2  1.195734795270358e+02 -3.126209342844500e+02 -1.155923199405612e+02 4 1 1
330 2  1.191599197081163e+02 -3.126493234912048e+02 -1.159148685868812e+02 4 1 1
331 4  1.188779242243475e+02 -3.125648882956651e+02 -1.163498680639107e+02 4 1 1
332 1  1.187886319467673e+02 -3.124645024918085e+02 -1.168576326547167e+02 4 1 1
333 2  1.188868274929853e+02 -3.124505322093528e+02 -1.173734211443506e+02 4 1 1
334 1  1.191027370603278e+02 -3.125955877814174e+02 -1.178297294171999e+02 4 1 1
335 2  1.193260539139283e+02 -3.129175215427407e+02 -1.181795344147999e+02 4 1 1
336 1  1.194439207388896e+02 -3.133732806649962e+02 -1.184124857706283e+02 4 1 1
337 1  1.193797902437060e+02 -3.138737317066175e+02 -1.185584697925463e+02 4 1 1
338 3  1.191197829904228e+02 -3.143143522815448e+02 -1.186773185927872e+02 4 1 1
339 1  1.187174665561334e+02 -3.146112216637954e+02 -1.188382078612628e+02 4 1 1
340 2  1.182754103983280e+02 -3.147299175413374e+02 -1.190958373279948e+02 4 1 1
341 3  1.179098677099025e+02 -3.146973687862707e+02 -1.194715957897892e+02 4 1 1
342 3  1.177107454996997e+02 -3.145925829303100e+02 -1.199461962216498e+02 4 1 1
343 4  1.177106465582977e+02 -3.145194411904318e+02 -1.204663169540052e+02 4 1 1
344 1  1.178736432108126e+02 -3.145709286405770e+02 -1.209629621330558e+02 4 1 1
345 2  1.181076484345953e+02 -3.147971162951699e+02 -1.213752193346666e+02 4 1 1
346 3  1.182961245461763e+02 -3.151879199596522e+02 -1.216712337791086e+02 4 1 1
347 2  1.183382110804842e+02 -3.156765725608844e+02 -1.218591770127372e+02 4 1 1
348 3  1.181834544717502e+02 -3.161626143162219e+02 -1.219844331672740e+02 4 1 1
349 1  1.178491809283846e+02 -3.165464844458630e+02 -1.221139716631081e+02 4 1 1
350 3  1.174145304314425e+02 -3.167638033280089e+02 -1.223132873651954e+02 4 1 1
351 3  1.169932061534675e+02 -3.168075405874238e+02 -1.226238484784332e+02 4 1 1
352 1  1.166943225975771e+02 -3.167304358922095e+02 -1.230488176374577e+02 4 1 1
353 2  1.165848337711511e+02 -3.166268388963149e+02 -1.235519629042120e+02 4 1 1
354 4  1.166664786489525e+02 -3.166002214518510e+02 -1.240701336537789e+02 4 1 1
355 4  1.168751823851039e+02 -3.167275487390082e+02 -1.245350054776071e+02 4 1 1
356 4  1.171031194569535e+02 -3.170327775426420e+02 -1.248966065960190e+02 4 1 1
357 3  1.172358416516699e+02 -3.174786071182546e+02 -1.251405248377857e+02 4 1 1
358 1  1.171916864698121e+02 -3.179793231041559e+02 -1.252928702397701e+02 4 1 1
359 3  1.169498962951689e+02 -3.184303118849792e+02 -1.254112844751698e+02 4 1 1
360 4  1.165577659464469e+02 -3.187440826095986e+02 -1.255650928693189e+02 4 1 1
361 4  1.161143574662024e+02 -3.188803932602441e+02 -1.258114333375649e+02 4 1 1
362 3  1.157363896978393e+02 -3.188601073448644e+02 -1.261755818619936e+02 4 1 1
363 4  1.155180480268778e+02 -3.187580098833209e+02 -1.266422491130364e+02 4 1 1
364 1  1.154985531564632e+02 -3.186770563871593e+02 -1.271608450844964e+02 4 1 1
365 3  1.156486560882870e+02 -3.187129217831071e+02 -1.276628989494941e+02 4 1 1
366 2  1.158807095452926e+02 -3.189210562889957e+02 -1.280856358897749e+02 4 1 1
367 1  1.160788479035469e+02 -3.192975920220138e+02 -1.283935925959474e+02 4 1 1