ITEM: TIMESTEP
0
ITEM: NUMBER OF ATOMS
16
ITEM: BOX BOUNDS pp pp pp
-2.0000000000000000e+01 2.0000000000000000e+01
-2.0000000000000000e+01 2.0000000000000000e+01
-2.0000000000000000e+01 2.0000000000000000e+01
ITEM: ATOMS id mol type x y z ix iy iz vx vy vz c_quat[1] c_quat[2] c_quat[3] c_quat[4] angmomx angmomy angmomz
1 1 1 -6.133472972454725e-01 -6.574781716697660e-01  3.606522635120190e-01 0 0 0  5.386890022865587e-02  2.262922525602673e-02  2.488229114473675e-01  9.964752158482045e-01 -5.325355573323980e-02  1.139116380710251e-02 -6.380787090289707e-02  1.772010258006941e-01 -2.958853170000101e-01 -2.624137503614725e-01
2 1 2 -4.526276424735636e-01 -1.003065053434591e+00  7.258693379233347e-01 0 0 0 -3.995003075629463e-02  2.696951106370198e-01 -1.898645454819566e-01  9.369923833143513e-01  1.122071604464856e-01  6.732538499716349e-02  3.239168400846305e-01 -3.061453937596818e-02 -1.176951893148060e-01  4.007470242647321e-02
3 1 3 -9.883421085226410e-02 -1.239775807128057e+00  1.069462285786363e+00 0 0 0 -2.078453529520138e-01 -1.362872235767304e-01 -6.062477950201746e-02  7.979649320918270e-01  1.447309635452787e-01  1.837414269936639e-01  5.554673737937029e-01 -3.676034584820381e-02 -6.308707793373186e-02 -1.479860157608762e-01
4 1 4  2.937771854299732e-01 -1.257975092489984e+00  1.425891608660697e+00 0 0 0 -2.396982418131700e-01 -5.624721730878831e-01  3.247442290503672e-02  5.660864821344559e-01  1.468827549948105e-01  9.873742533340191e-02  8.051226439917721e-01 -1.652364596501651e-01  2.860623077030974e-01  3.354351975310588e-01
5 1 1  6.286896795685137e-01 -1.018334339511974e+00  1.768934633967282e+00 0 0 0 -1.611489735682835e-01 -2.288969747076015e-01 -1.355332496264956e-01  2.533023785125306e-01  1.206231316167983e-01  8.583012223905846e-02  9.559922359911086e-01  7.151030852881342e-02 -9.415592891043179e-02  1.342288153931229e-01
6 1 2  7.901522619067926e-01 -6.766341805565266e-01  2.154016070549575e+00 0 0 0 -4.701706588477693e-02  1.921671558511004e-01  1.458824279129722e-01 -3.855807343534716e-02  8.405913137017908e-02  2.236505169306371e-02  9.954632800204194e-01  9.218622989776322e-02 -5.640128930702024e-01  9.287105657777776e-02
7 1 3  7.115777184886863e-01 -4.019557932514345e-01  2.569568683291525e+00 0 0 0  5.098438305112513e-02 -3.845955552200959e-02 -1.424419628574967e-01 -4.559284433024802e-01  1.004550065061007e-01 -5.252474529475878e-02  8.827679181910482e-01  3.479046835475834e-01  4.244922695910593e-01 -1.358288260435836e-01
8 1 4  4.697331037700523e-01 -3.025169796710703e-01  3.066800711751922e+00 0 0 0  3.782797134841193e-01 -4.953992506010833e-02  1.626392045834847e-01  7.680212215404908e-01 -9.582139884533597e-03  3.658677589040892e-02 -6.393066507464399e-01  4.428876596361290e-02  7.868414126013584e-02 -1.271360044432503e-01
9 2 1  4.056113349449848e-01 -1.443775499211898e+00  3.059072650334112e+00 0 0 0  4.912038408665491e-02  4.126064731871670e-02  1.222385633449523e-02 -2.329997575451234e-01  6.886863952313410e-01  6.747873944883376e-01 -1.268232401684158e-01  3.282916621721876e-02 -1.267054709525600e-04  1.559787854176960e-01
10 2 2 -3.202842905928752e-02 -1.294752097116472e+00  2.720107115139219e+00 0 0 0  1.939216183073483e-01  1.107523548538194e-01 -4.050505160199710e-02 -2.466206187190723e-01  8.744456399178389e-01  3.937083608782400e-01 -1.397026120939516e-01 -1.700813500181381e-01 -4.563093565840761e-01 -3.031851362703951e-01
11 2 3 -3.161385511231407e-01 -9.084141759061610e-01  2.412520787178201e+00 0 0 0 -3.513607339206460e-01 -1.882241906753569e-01  3.614793819905130e-01 -8.747590085090901e-02  9.773676023882290e-01  1.449354911309558e-01 -1.268630757266878e-01 -3.708221604627426e-01 -4.910838182594122e-01  9.435948331955418e-02
12 2 4 -3.893939125182100e-01 -4.866605488242819e-01  2.006177777000426e+00 0 0 0 -1.188642917357977e-01  2.235528245655188e-01  9.265586122144348e-03 -3.181169300779214e-02  9.634374984140114e-01 -2.442360692534372e-01 -1.054748563087919e-01 -2.823010018885836e-01  1.027648566082889e-01  1.017523347678070e-01
13 3 1 -6.232643040853296e-02 -7.155965522127403e-02  1.559320605273073e+00 0 0 0 -1.446616296238799e-01 -1.155205990978724e-01  1.331477187595642e-01 -3.278607069657226e-02  7.922941528811774e-01 -6.084214170523914e-01 -3.191282109962716e-02 -2.549872189037434e-01  2.754663721641154e-01  5.806416868630132e-02
14 3 2  1.788409039091338e-01 -5.516721349427172e-02  1.021273149730912e+00 0 0 0  5.154712003586254e-02 -3.661102651077563e-01 -6.630782880801242e-02  4.718868628834144e-02  6.316396208287697e-01 -7.737349519945346e-01  1.178309584462780e-02 -1.199984717331652e-01  6.844768922886051e-02  2.161595932308759e-01
15 3 3  4.513439961906000e-01 -2.379560738327457e-01  5.957328539615993e-01 0 0 0 -2.021424496209139e-01  2.334122693355961e-01  8.133374252278069e-03 -5.869980642620334e-02 -3.422935820341442e-01  9.376740835056506e-01  1.251996587850869e-02 -1.701391112413525e-01  1.870292260510287e-02 -2.682954134361106e-01
16 3 4  5.077649359807965e-01 -5.565625134533538e-01  1.655875784458841e-01 0 0 0 -1.920213116286801e-01 -8.105295741355378e-02 -4.693508108850740e-02 -8.582818143150042e-02  8.707732197394232e-04  9.939540921464659e-01 -6.846917358531610e-02  1.733210765264759e-02 -3.287658886280769e-01  1.085334141225924e-01
ITEM: TIMESTEP
1000
ITEM: NUMBER OF ATOMS
16
ITEM: BOX BOUNDS pp pp pp
-2.0000000000000000e+01 2.0000000000000000e+01
-2.0000000000000000e+01 2.0000000000000000e+01
-2.0000000000000000e+01 2.0000000000000000e+01
ITEM: ATOMS id mol type x y z ix iy iz vx vy vz c_quat[1] c_quat[2] c_quat[3] c_quat[4] angmomx angmomy angmomz
1 1 1 -6.128610371907945e-01 -6.573036932272216e-01  3.630457416699754e-01 0 0 0  4.339023260213534e-02  1.230126966082699e-02  2.293686544097141e-01  9.964256627172750e-01 -5.085287652110039e-02  8.605682114830275e-03 -6.690161330870566e-02  2.016442485122543e-01 -2.422394299030969e-01 -2.538864245225235e-01
2 1 2 -4.530582053130334e-01 -1.000366870387771e+00  7.238836657851313e-01 0 0 0 -4.617488758797115e-02  2.695759300634151e-01 -2.064871756058691e-01  9.369830019969474e-01  1.112803033186948e-01  6.643821330092714e-02  3.244464699691898e-01 -6.354238715916817e-02 -9.006586847192471e-02  4.022206738790825e-02
3 1 3 -1.009487904509237e-01 -1.241055825211484e+00  1.069061648445921e+00 0 0 0 -2.149648754314644e-01 -1.197762159919603e-01 -1.944829484467249e-02  7.991215457504897e-01  1.444998144039193e-01  1.826960364002489e-01  5.542081892558246e-01  3.630674896160351e-02 -1.096378068020868e-01 -1.574915733395307e-01
4 1 4  2.913982288053452e-01 -1.263516020266014e+00  1.426133883390715e+00 0 0 0 -2.360881033988202e-01 -5.454649923316764e-01  1.618484580728035e-02  5.629293558414487e-01  1.479296223055656e-01  1.028256654553752e-01  8.066314212204504e-01 -1.972067833508167e-01  2.791148979268203e-01  3.414942129463409e-01
5 1 1  6.271401264882076e-01 -1.020677141268070e+00  1.767552178145798e+00 0 0 0 -1.487413181525200e-01 -2.394030766377373e-01 -1.405099503996453e-01  2.518101603478563e-01  1.196768037376480e-01  8.493434413545627e-02  9.565852094711726e-01  7.605433545205495e-02 -9.237648970552176e-02  1.355905211629980e-01
6 1 2  7.897835375677084e-01 -6.747356881807328e-01  2.155545306357416e+00 0 0 0 -2.725935018131790e-02  1.871109893976906e-01  1.608348253990272e-01 -3.971407941882870e-02  7.776692563475510e-02  2.168109534971630e-02  9.959442892439667e-01  8.711785300189141e-02 -5.222405705483403e-01  1.185315905463488e-01
7 1 3  7.121159936746460e-01 -4.022441356059798e-01  2.568283508667472e+00 0 0 0  5.694219750793950e-02 -1.907473538176700e-02 -1.142181552579359e-01 -4.547059738274699e-01  1.028968029073519e-01 -5.830329067381507e-02  8.827544684756132e-01  3.245979451529304e-01  4.206659057519619e-01 -1.290486210897128e-01
8 1 4  4.735450662315469e-01 -3.030225111865728e-01  3.068400230841504e+00 0 0 0  3.840604134973949e-01 -5.156742120303260e-02  1.571347005665935e-01  7.669837845596318e-01 -9.858870689299859e-03  3.760909807188718e-02 -6.404874960789908e-01  2.334250844655434e-02  9.354041968631807e-02 -1.462387346261083e-01
9 2 1  4.060719730190963e-01 -1.443401834055859e+00  3.059077180934642e+00 0 0 0  4.308728591160133e-02  3.345301764830635e-02 -1.128186864896087e-02 -2.329283588396283e-01  6.874241949986835e-01  6.760464386504665e-01 -1.270966898338049e-01  5.568685930701680e-03  1.210772142282596e-03  1.557013342298403e-01
10 2 2 -3.007055232042696e-02 -1.293671364279765e+00  2.719700716486056e+00 0 0 0  1.972324929328102e-01  1.053919944415117e-01 -4.093245156603540e-02 -2.431078893403329e-01  8.769916925528923e-01  3.918128896551920e-01 -1.351546700404774e-01 -2.086350129878357e-01 -4.565893887677400e-01 -2.691061763959774e-01
11 2 3 -3.198223777440189e-01 -9.102368120550643e-01  2.416063364786835e+00 0 0 0 -3.848274040594619e-01 -1.760091053540516e-01  3.457736980182847e-01 -8.248265895906705e-02  9.782807944455185e-01  1.457642808474856e-01 -1.221313744256695e-01 -3.551661678279701e-01 -4.708935316474315e-01  6.193317255400048e-02
12 2 4 -3.906198210500557e-01 -4.844478472600912e-01  2.006351037783379e+00 0 0 0 -1.262059852809262e-01  2.186851490273127e-01  2.523756084202515e-02 -2.826011232154873e-02  9.636981640892854e-01 -2.434867835782047e-01 -1.058366704184096e-01 -2.855099228649062e-01  1.001774942438097e-01  1.020731791630725e-01
13 3 1 -6.375067782718574e-02 -7.279420989028243e-02  1.560559492402015e+00 0 0 0 -1.402705117485464e-01 -1.314745171621037e-01  1.142691982010661e-01 -2.858222935505418e-02  7.927376512892029e-01 -6.080082555912428e-01 -3.280294996592661e-02 -2.301658222539327e-01  2.877452260382524e-01  7.404274955820569e-02
14 3 2  1.793762750788755e-01 -5.886262676758305e-02  1.020582728498993e+00 0 0 0  5.541187021019885e-02 -3.727721736721610e-01 -7.181319587282398e-02  4.849364653050930e-02  6.335251167958941e-01 -7.721016668196122e-01  1.238179022999783e-02 -9.177975694636226e-02  5.878915476642334e-02  2.193808220626853e-01
15 3 3  4.493649498582820e-01 -2.356193149957798e-01  5.958829487462143e-01 0 0 0 -1.935851343981689e-01  2.337884918070854e-01  2.162473637200401e-02 -5.968224515570788e-02 -3.392512652232225e-01  9.387388288743423e-01  1.077124975315760e-02 -2.066799918967825e-01  3.283471319648077e-02 -2.713487092593518e-01
16 3 4  5.058600780586872e-01 -5.573582428998930e-01  1.651830434175100e-01 0 0 0 -1.889948847335707e-01 -7.785888074273543e-02 -3.388074207867942e-02 -8.204625579212935e-02 -1.524622796150299e-04  9.942822960589134e-01 -6.834547834027591e-02  2.248053435685793e-02 -3.180402719334685e-01  1.113473124838302e-01
ITEM: TIMESTEP
2000
ITEM: NUMBER OF ATOMS
16
ITEM: BOX BOUNDS pp pp pp
-2.0000000000000000e+01 2.0000000000000000e+01
-2.0000000000000000e+01 2.0000000000000000e+01
-2.0000000000000000e+01 2.0000000000000000e+01
ITEM: ATOMS id mol type x y z ix iy iz vx vy vz c_quat[1] c_quat[2] c_quat[3] c_quat[4] angmomx angmomy angmomz
1 1 1 -6.124794076409689e-01 -6.572310049880696e-01  3.652295948512422e-01 0 0 0  3.293498999025436e-02  2.315525689812743e-03  2.068983418536085e-01  9.963692230230115e-01 -4.821703614262099e-02  6.458283548661260e-03 -6.986973172802971e-02  2.255407850870888e-01 -1.868798499645653e-01 -2.466564045275919e-01
2 1 2 -4.535508418086568e-01 -9.976810359780034e-01  7.217571304662104e-01 0 0 0 -5.231158589346855e-02  2.672085711162879e-01 -2.178536669088875e-01  9.369928900450940e-01  1.101166430865441e-01  6.594282953736669e-02  3.249156692942019e-01 -9.224842722595671e-02 -6.643126401912053e-02  3.940151496563898e-02
3 1 3 -1.031317124682966e-01 -1.242172390423836e+00  1.069073272314226e+00 0 0 0 -2.215444517683161e-01 -1.035843433791809e-01  2.171480293357056e-02  8.003059977348098e-01  1.446627225469226e-01  1.807478435098913e-01  5.530942268380015e-01  1.088824182645267e-01 -1.551398688289146e-01 -1.656199730077929e-01
4 1 4  2.890556384096904e-01 -1.268879656791069e+00  1.426219725137249e+00 0 0 0 -2.324137578146559e-01 -5.270367668781565e-01  1.219616887480908e-03  5.597799908412527e-01  1.487093462652850e-01  1.071474660887240e-01  8.081159030101339e-01 -2.247721984033602e-01  2.719446855315380e-01  3.427404626631930e-01
5 1 1  6.257148863659845e-01 -1.023116895007344e+00  1.766133618679332e+00 0 0 0 -1.363229000404116e-01 -2.482581902720354e-01 -1.427344659795635e-01  2.502914791355036e-01  1.187815266361304e-01  8.399949738557898e-02  9.571777310620646e-01  8.079578065331633e-02 -8.695188643554723e-02  1.370350509837985e-01
6 1 2  7.895967411373622e-01 -6.728998962470348e-01  2.157248186500443e+00 0 0 0 -1.059360071164570e-02  1.796766661896894e-01  1.804014705327857e-01 -4.116192628622029e-02  7.201175497362984e-02  2.106046141046674e-02  9.963315010252382e-01  8.110544722425057e-02 -4.693599007146224e-01  1.428622303974717e-01
7 1 3  7.127214935222205e-01 -4.023347970704256e-01  2.567290841342484e+00 0 0 0  6.437834568113233e-02  1.057972164752353e-03 -8.403745216247986e-02 -4.535253244044352e-01  1.054260525769456e-01 -6.379960920179781e-02  8.826832599679191e-01  2.990641624699499e-01  4.161479479258379e-01 -1.189775084593442e-01
8 1 4  4.774131594829792e-01 -3.035480940602421e-01  3.069940994896266e+00 0 0 0  3.894954984961368e-01 -5.352474031009828e-02  1.509067536570920e-01  7.657912236557549e-01 -1.042008767002184e-02  3.861532960547404e-02 -6.418442800744053e-01  3.117526172166971e-03  1.089472658038916e-01 -1.660166828045549e-01
9 2 1  4.064748343743896e-01 -1.443106899724170e+00  3.058847948172769e+00 0 0 0  3.758010101559116e-02  2.550725876128246e-02 -3.450675567482695e-02 -2.326524224796505e-01  6.862368326313989e-01  6.772546478845826e-01 -1.275852725556751e-01 -2.110416898321045e-02  1.937584893442732e-03  1.543387288369814e-01
10 2 2 -2.809207500300510e-02 -1.292644276472824e+00  2.719285807061526e+00 0 0 0  1.980555131967518e-01  1.000245505454356e-01 -4.215769983463296e-02 -2.391410876607841e-01  8.794464460944689e-01  3.901959393781810e-01 -1.308916251599193e-01 -2.482873955364263e-01 -4.534841283633252e-01 -2.318644666599928e-01
11 2 3 -3.238234726734897e-01 -9.119291636996868e-01  2.419413110247279e+00 0 0 0 -4.148139650606628e-01 -1.622370558269786e-01  3.231344815732326e-01 -7.773946269002675e-02  9.791525873383715e-01  1.462229838879215e-01 -1.176249362684263e-01 -3.411873000045079e-01 -4.404823281343363e-01  3.033691805816021e-02
12 2 4 -3.919155332961952e-01 -4.822929504771702e-01  2.006678889837767e+00 0 0 0 -1.327992568293133e-01  2.119864006187877e-01  4.012068318448474e-02 -2.468250329392757e-02  9.639488155185272e-01 -2.427381608387826e-01 -1.061679818221051e-01 -2.878846561997646e-01  9.899703146933220e-02  1.015234127156569e-01
13 3 1 -6.513357190448023e-02 -7.419056272277237e-02  1.561599218580678e+00 0 0 0 -1.363977235740420e-01 -1.478537525038619e-01  9.336120819385708e-02 -2.452699126454341e-02  7.932595928796196e-01 -6.074388961732178e-01 -3.399459397951445e-02 -2.021571492232076e-01  3.001006033586656e-01  8.856606630224723e-02
14 3 2  1.799469883591658e-01 -6.261872665587068e-02  1.019836648132638e+00 0 0 0  5.863021042639804e-02 -3.782545494499270e-01 -7.738895179659076e-02  4.950338872663688e-02  6.354427459377626e-01 -7.704532165192531e-01  1.279735499204192e-02 -6.268295132185281e-02  4.919037000844172e-02  2.212420275943593e-01
15 3 3  4.474736451114827e-01 -2.332834160302299e-01  5.961592288587551e-01 0 0 0 -1.846219002066551e-01  2.332310333964997e-01  3.328124125705591e-02 -6.093673087103532e-02 -3.361574270000660e-01  9.397921229383200e-01  8.698549679797225e-03 -2.395127390159945e-01  4.410726809428634e-02 -2.721533570825521e-01
16 3 4  5.039841152946664e-01 -5.581153139537351e-01  1.649110251341238e-01 0 0 0 -1.862434792177815e-01 -7.335285629338519e-02 -2.050322237481394e-02 -7.839220003848789e-02 -1.206306386521649e-03  9.945883620479008e-01 -6.817035922526329e-02  2.641561318024778e-02 -3.060631389206367e-01  1.116140312270309e-01
ITEM: TIMESTEP
3000
ITEM: NUMBER OF ATOMS
16
ITEM: BOX BOUNDS pp pp pp
-2.0000000000000000e+01 2.0000000000000000e+01
-2.0000000000000000e+01 2.0000000000000000e+01
-2.0000000000000000e+01 2.0000000000000000e+01
ITEM: ATOMS id mol type x y z ix iy iz vx vy vz c_quat[1] c_quat[2] c_quat[3] c_quat[4] angmomx angmomy angmomz
1 1 1 -6.122024960957283e-01 -6.572553807422904e-01  3.671735328077561e-01 0 0 0  2.243117285546333e-02 -7.070921461819643e-03  1.813742409861414e-01  9.963076830734691e-01 -4.535557252096048e-02  4.968455084397957e-03 -7.272679797809188e-02  2.488535632307067e-01 -1.300119897838585e-01 -2.404040925465520e-01
2 1 2 -4.541031507358150e-01 -9.950304139326692e-01  7.195475247774863e-01 0 0 0 -5.806427148488479e-02  2.625297955863506e-01 -2.229479820101268e-01  9.370234514909536e-01  1.087511926609466e-01  6.577056609794818e-02  3.253220897602220e-01 -1.156853736099781e-01 -4.799615009120341e-02  3.727747905972615e-02
3 1 3 -1.053784372257633e-01 -1.243128405210242e+00  1.069493656971074e+00 0 0 0 -2.277502418026963e-01 -8.766234442838067e-02  6.219043914337722e-02  8.015032668867595e-01  1.452151492315490e-01  1.779169951886839e-01  5.521327887623961e-01  1.798325499272540e-01 -1.992917331341775e-01 -1.718855466938814e-01
4 1 4  2.867503766422189e-01 -1.274052456216387e+00  1.426163263859782e+00 0 0 0 -2.286129021970432e-01 -5.073182405222620e-01 -1.225009527945747e-02  5.566756755374356e-01  1.492565110565411e-01  1.116511555793028e-01  8.095484578639965e-01 -2.475368480189629e-01  2.646432495621603e-01  3.391384894643147e-01
5 1 1  6.244130168926915e-01 -1.025636262593152e+00  1.764706909966302e+00 0 0 0 -1.240988557657787e-01 -2.553017618306347e-01 -1.421359268316057e-01  2.487421853498990e-01  1.179781256235402e-01  8.303397606404141e-02  9.577650264656301e-01  8.571583390921400e-02 -7.785593095304469e-02  1.384711904247162e-01
6 1 2  7.895623878480000e-01 -6.711490175283538e-01  2.159164165595543e+00 0 0 0  3.290328054082242e-03  1.701833699066689e-01  2.032173835035306e-01 -4.288572056998977e-02  6.690878311073004e-02  2.050499803750930e-02  9.966260957697807e-01  7.429079848623511e-02 -4.078463270525480e-01  1.654165267702887e-01
7 1 3  7.134074380997272e-01 -4.022208272823158e-01  2.566607378656919e+00 0 0 0  7.297771680516590e-02  2.183594179346008e-02 -5.246996136178923e-02 -4.524162627674360e-01  1.080466845327187e-01 -6.898618211469290e-02  8.825453789025648e-01  2.719541975142694e-01  4.106306355136257e-01 -1.061841649053727e-01
8 1 4  4.813336243209202e-01 -3.040922655673897e-01  3.071416313778203e+00 0 0 0  3.945252100937113e-01 -5.526003855359302e-02  1.440627716264732e-01  7.644371940095700e-01 -1.126198879837366e-02  3.961525216856385e-02 -6.433813611060718e-01 -1.626042174372914e-02  1.247997021475445e-01 -1.864038678010055e-01
9 2 1  4.068256189377151e-01 -1.442892287502619e+00  3.058388437366533e+00 0 0 0  3.268581815235531e-02  1.738205705627193e-02 -5.731381470133932e-02 -2.321739401205980e-01  6.851318785411987e-01  6.784060418831458e-01 -1.282763145398585e-01 -4.707177799945160e-02  1.975881898890509e-03  1.518983157251473e-01
10 2 2 -2.611742700031094e-02 -1.291670934286036e+00  2.718855878345055e+00 0 0 0  1.964833911877654e-01  9.463750656480507e-02 -4.388879391418474e-02 -2.347239963156612e-01  8.817942338136300e-01  3.888781085398133e-01 -1.269542888804313e-01 -2.883091258936796e-01 -4.473916528006146e-01 -1.923875910535759e-01
11 2 3 -3.281073098139859e-01 -9.134777756858176e-01  2.422507735911613e+00 0 0 0 -4.413978878649094e-01 -1.473303560385595e-01  2.949996061629764e-01 -7.324281612136181e-02  9.799776631437884e-01  1.463128677764050e-01 -1.134540186546785e-01 -3.285432702962511e-01 -4.018292001461534e-01 -2.365760383475747e-04
12 2 4 -3.932728586956030e-01 -4.802143111984945e-01  2.007148691162888e+00 0 0 0 -1.385097673073740e-01  2.034307782584797e-01  5.357887331482807e-02 -2.108607690509025e-02  9.641844489532752e-01 -2.419998118960417e-01 -1.064885759117021e-01 -2.892167622363176e-01  9.953915126178549e-02  9.999506595249340e-02
13 3 1 -6.648044713285851e-02 -7.575218370702261e-02  1.562420940909128e+00 0 0 0 -1.330684040960597e-01 -1.645029669018199e-01  7.072190374696967e-02 -2.064745711968692e-02  7.938502180491206e-01 -6.067246207707494e-01 -3.550701858006135e-02 -1.715216687468063e-01  3.124155128251249e-01  1.016494836409375e-01
14 3 2  1.805469964860502e-01 -6.642390076055538e-02  1.019035796744401e+00 0 0 0  6.128340049447035e-02 -3.825911282764531e-01 -8.270794856267684e-02  5.021460361772982e-02  6.373814207298941e-01 -7.688002380664738e-01  1.302351875605473e-02 -3.329065341192745e-02  3.981646414718199e-02  2.217325726546983e-01
15 3 3  4.456733266015105e-01 -2.309579988289865e-01  5.965407354854807e-01 0 0 0 -1.754140145171630e-01  2.316819057881534e-01  4.258829105601331e-02 -6.241132583920052e-02 -3.330388769210118e-01  9.408240234622414e-01  6.331646113325291e-03 -2.677885793197097e-01  5.177125208789338e-02 -2.706780438979829e-01
16 3 4  5.021343485109728e-01 -5.588216020244655e-01  1.647728417282362e-01 0 0 0 -1.837486549177917e-01 -6.773787337174511e-02 -7.162601537758977e-03 -7.487902096492978e-02 -2.262584277579901e-03  9.948719196406252e-01 -6.795495892352504e-02  2.920455563405555e-02 -2.933769720986000e-01  1.095974644510143e-01
ITEM: TIMESTEP
4000
ITEM: NUMBER OF ATOMS
16
ITEM: BOX BOUNDS pp pp pp
-2.0000000000000000e+01 2.0000000000000000e+01
-2.0000000000000000e+01 2.0000000000000000e+01
-2.0000000000000000e+01 2.0000000000000000e+01
ITEM: ATOMS id mol type x y z ix iy iz vx vy vz c_quat[1] c_quat[2] c_quat[3] c_quat[4] angmomx angmomy angmomz
1 1 1 -6.120311780798647e-01 -6.573698245353656e-01  3.688467480862975e-01 0 0 0  1.182222566410770e-02 -1.569687755871703e-02  1.527622639403541e-01  9.962416561390881e-01 -4.227835641557591e-02  4.153801092430412e-03 -7.548409824942662e-02  2.715485861073646e-01 -7.177351232270740e-02 -2.349525091190964e-01
2 1 2 -4.547100419981527e-01 -9.924380632467169e-01  7.173217406382508e-01 0 0 0 -6.319391343096387e-02  2.555678114778340e-01 -2.209823725914378e-01  9.370765551315641e-01  1.072252470249675e-01  6.583687873754127e-02  3.256620665986352e-01 -1.330031027492279e-01 -3.574632522085881e-02  3.361748441897262e-02
3 1 3 -1.076859197395630e-01 -1.243926556134276e+00  1.070312434395327e+00 0 0 0 -2.337159381534686e-01 -7.201819952264206e-02  1.012688838610823e-01  8.026947853158193e-01  1.461423996482647e-01  1.742343406292826e-01  5.513310032977623e-01  2.479127939256037e-01 -2.417532209129376e-01 -1.758689764545955e-01
4 1 4  2.844839731415935e-01 -1.279022110662041e+00  1.425980187533609e+00 0 0 0 -2.246346085856141e-01 -4.864259171011450e-01 -2.408084118471830e-02  5.536533724968756e-01  1.496088662631297e-01  1.162821636105095e-01  8.109029465258808e-01 -2.652009161723135e-01  2.572747082420482e-01  3.307166409060318e-01
5 1 1  6.232316818333093e-01 -1.028216470663905e+00  1.763300232116533e+00 0 0 0 -1.122418197325764e-01 -2.604089207910629e-01 -1.387411593681168e-01  2.471593472143661e-01  1.173069744737854e-01  8.204626240403376e-02  9.583421840083549e-01  9.074686224480240e-02 -6.520185952371474e-02  1.398084195977877e-01
6 1 2  7.896545042286697e-01 -6.695020235741405e-01  2.161318767468627e+00 0 0 0  1.475926646015761e-02  1.589501796833579e-01  2.279112366488872e-01 -4.486471465734382e-02  6.254442035216821e-02  2.001525718518068e-02  9.968323541806503e-01  6.688346082526174e-02 -3.401567753210976e-01  1.858866509539384e-01
7 1 3  7.141838652971516e-01 -4.018962125536338e-01  2.566244262721836e+00 0 0 0  8.242286648297674e-02  4.317408299518137e-02 -2.005513791221649e-02 -4.514035256986275e-01  1.107562492209520e-01 -7.384101457105104e-02  8.823352054703887e-01  2.438752040681827e-01  4.038441511699210e-01 -9.128341595351430e-02
8 1 4  4.853021317616144e-01 -3.046520588431288e-01  3.072820517865219e+00 0 0 0  3.990955930649982e-01 -5.662473542707953e-02  1.366984802560399e-01  7.629155699050491e-01 -1.237884215987796e-02  4.061872450767563e-02 -6.451020978749060e-01 -3.463881125901275e-02  1.409891938349799e-01 -2.073219353498958e-01
9 2 1  4.071308579792935e-01 -1.442759980511846e+00  3.057703555934265e+00 0 0 0  2.848336878335419e-02  9.040440187619930e-03 -7.955522870268254e-02 -2.314952665370436e-01  6.841164897199828e-01  6.794949688594548e-01 -1.291555548896002e-01 -7.219219049149002e-02  1.255556645801306e-03  1.483901893256449e-01
10 2 2 -2.417004407648328e-02 -1.290751757204713e+00  2.718407265589526e+00 0 0 0  1.926203243941439e-01  8.918008868104060e-02 -4.585019284630071e-02 -2.298669240867299e-01  8.840218703501125e-01  3.878730298370127e-01 -1.233735898750240e-01 -3.280400359986484e-01 -4.387139799858899e-01 -1.515793119474163e-01
11 2 3 -3.326405448597307e-01 -9.148732825963350e-01  2.425299644200635e+00 0 0 0 -4.647145952056352e-01 -1.316744822143502e-01  2.628195534508851e-01 -6.898967353219559e-02  9.807534810330818e-01  1.460402817761464e-01 -1.097053803883710e-01 -3.168814536572516e-01 -3.569723477475168e-01 -2.965655648121355e-02
12 2 4 -3.946824793136943e-01 -4.782305437518919e-01  2.007744898410676e+00 0 0 0 -1.432469670513007e-01  1.930135077885315e-01  6.536979091397252e-02 -1.747947579825927e-02  9.643995217362581e-01 -2.412823235810181e-01 -1.068216772384695e-01 -2.893586910325837e-01  1.020044656009650e-01  9.736712993559628e-02
13 3 1 -6.779674068978962e-02 -7.748103712139565e-02  1.563009014310856e+00 0 0 0 -1.302784396147030e-01 -1.812772059119228e-01  4.669091919839903e-02 -1.696622156543208e-02  7.945002822003341e-01 -6.058763112274653e-01 -3.735430902562453e-02 -1.388833561157422e-01  3.245594505490316e-01  1.133546405938992e-01
14 3 2  1.811710133165205e-01 -7.026677585518039e-02  1.018184676869572e+00 0 0 0  6.344363845779906e-02 -3.857947443698976e-01 -8.736663692751660e-02  5.063009090807491e-02  6.393293732109157e-01 -7.671531962042047e-01  1.305833059968632e-02 -4.300230415613079e-03  3.084450641419629e-02  2.208150828846239e-01
15 3 3  4.439656663101227e-01 -2.286533061822859e-01  5.970016403463715e-01 0 0 0 -1.661155624568511e-01  2.290737898855977e-01  4.909242397626476e-02 -6.404355786538017e-02 -3.299234343200621e-01  9.418254678642280e-01  3.706516521986139e-03 -2.907660100906246e-01  5.518218368735235e-02 -2.668910679995320e-01
16 3 4  5.003083829056429e-01 -5.594669623942468e-01  1.647667814322375e-01 0 0 0 -1.814934013871112e-01 -6.117309423342518e-02  5.874402628473005e-03 -7.151448523383412e-02 -3.295891303453440e-03  9.951332356675651e-01 -6.771010834475123e-02  3.090158855558496e-02 -2.803554296743982e-01  1.055112651646246e-01
ITEM: TIMESTEP
5000
ITEM: NUMBER OF ATOMS
16
ITEM: BOX BOUNDS pp pp pp
-2.0000000000000000e+01 2.0000000000000000e+01
-2.0000000000000000e+01 2.0000000000000000e+01
-2.0000000000000000e+01 2.0000000000000000e+01
ITEM: ATOMS id mol type x y z ix iy iz vx vy vz c_quat[1] c_quat[2] c_quat[3] c_quat[4] angmomx angmomy angmomz
1 1 1 -6.119663786145921e-01 -6.575667149588698e-01  3.702186668272643e-01 0 0 0  1.110632322229167e-03 -2.353635322709146e-02  1.211172881342782e-01  9.961702616072725e-01 -3.899564791782631e-02  4.029336742733232e-03 -7.815314311133692e-02  2.935852841603661e-01 -1.235342783342293e-02 -2.303432081423356e-01
2 1 2 -4.553643987078859e-01 -9.899262184597155e-01  7.151529831926617e-01 0 0 0 -6.753778139351088e-02  2.464615539066549e-01 -2.114994397342278e-01  9.371544830874201e-01  1.055847182506315e-01  6.604541127031124e-02  3.259315046926592e-01 -1.436463490876717e-01 -3.033633626368695e-02  2.833594652630654e-02
3 1 3 -1.100523216895252e-01 -1.244569932871574e+00  1.071511715586932e+00 0 0 0 -2.395509161499886e-01 -5.672545045788236e-02  1.381470148704578e-01  8.038592990321916e-01  1.474187541087131e-01  1.697431013326093e-01  5.506952132046329e-01  3.116705573000128e-01 -2.820901619981473e-01 -1.772031123621623e-01
4 1 4  2.822584080459807e-01 -1.283777401484095e+00  1.425687554175149e+00 0 0 0 -2.204395849122759e-01 -4.644612205070807e-01 -3.413925771890394e-02  5.507494458055241e-01  1.498065121679197e-01  1.209837621437121e-01  8.121551490660790e-01 -2.775360444405786e-01  2.498845281621657e-01  3.175521856310850e-01
5 1 1  6.221664974736385e-01 -1.030837709171719e+00  1.761940995511381e+00 0 0 0 -1.008885365071508e-01 -2.634980779552002e-01 -1.326769142102337e-01  2.455413410222924e-01  1.168062653040156e-01  8.104510009505299e-02  9.589042903154021e-01  9.576979336850776e-02 -4.924606387633939e-02  1.409720509258672e-01
6 1 2  7.898505895614500e-01 -6.679748782949930e-01  2.163724775057395e+00 0 0 0  2.413008565928182e-02  1.462560374155138e-01  2.533307442456301e-01 -4.707510781208878e-02  5.897873092459924e-02  1.959014803000960e-02  9.969562024598505e-01  5.910642688440913e-02 -2.683640279120084e-01  2.041205140956750e-01
7 1 3  7.150577036730156e-01 -4.013557174668188e-01  2.566207410140517e+00 0 0 0  9.241118328509412e-02  6.500089080908361e-02  1.270084316912144e-02 -4.505064211187211e-01  1.135464773942070e-01 -7.834743430319190e-02  8.820503622471201e-01  2.153822532878721e-01  3.955585610174702e-01 -7.490953466002055e-02
8 1 4  4.893138492000587e-01 -3.052230484143581e-01  3.074148813963054e+00 0 0 0  4.031601991982170e-01 -5.747617384498714e-02  1.288926570146138e-01  7.612206013340678e-01 -1.376266527314745e-02  4.163588553461365e-02 -6.470086847832325e-01 -5.183118089653421e-02  1.574015369155712e-01 -2.286764008640088e-01
9 2 1  4.073978229075546e-01 -1.442712307465045e+00  3.056799751817572e+00 0 0 0  2.504148522604238e-02  4.503882286253031e-04 -1.010704803790912e-01 -2.306193849006489e-01  6.831973197529534e-01  6.805161698493272e-01 -1.302070050497627e-01 -9.629365252976636e-02 -2.859264115865369e-04  1.438284481889062e-01
10 2 2 -2.227229393155341e-02 -1.289887843333846e+00  2.717938967694282e+00 0 0 0  1.865754593913340e-01  8.356864970304184e-02 -4.778394474685148e-02 -2.245859255304630e-01  8.861185214369540e-01  3.871873386811918e-01 -1.201710979603167e-01 -3.668854659693584e-01 -4.278466392536397e-01 -1.102965594803857e-01