ITEM: TIMESTEP
0
ITEM: NUMBER OF ATOMS
100
ITEM: BOX BOUNDS pp pp pp
0.0000000000000000e+00 5.5032120814910446e+00
0.0000000000000000e+00 5.5032120814910446e+00
0.0000000000000000e+00 4.4025696651928357e+00
ITEM: ATOMS id type x y z quatw quati quatj quatk c_diameter[1] c_diameter[2] c_diameter[3]
1 0 0 0 0 -0.18335 0.54547 -0.710272 -0.405413 0.4 0.4 0.8
5 0 1.10064 0 0 -0.820187 -0.0797879 -0.382617 0.41777 0.4 0.4 0.8
9 0 2.20128 0 0 -0.170587 -0.665455 0.667054 0.288284 0.4 0.4 0.8
13 0 3.30193 0 0 -0.0205414 0.58206 -0.466944 0.665393 0.4 0.4 0.8
17 0 4.40257 0 0 -0.292047 -0.0722381 0.361414 0.882536 0.4 0.4 0.8
3 0 0 1.10064 0 -0.295753 -0.690255 -0.645208 -0.14066 0.4 0.4 0.8
7 0 1.10064 1.10064 0 -0.00120791 0.163333 -0.985712 0.0411425 0.4 0.4 0.8
11 0 2.20128 1.10064 0 0.388591 0.15476 -0.904001 -0.0884753 0.4 0.4 0.8
15 0 3.30193 1.10064 0 0.272266 -0.00326878 0.199634 0.941279 0.4 0.4 0.8
19 0 4.40257 1.10064 0 0.511302 0.61886 -0.299918 -0.515395 0.4 0.4 0.8
21 0 0 2.20128 0 -0.298129 0.666059 -0.389325 -0.562059 0.4 0.4 0.8
23 0 1.10064 2.20128 0 -0.837118 0.205529 -0.50011 0.0829498 0.4 0.4 0.8
25 0 2.20128 2.20128 0 -0.0841067 0.497521 0.808701 0.302328 0.4 0.4 0.8
27 0 3.30193 2.20128 0 0.252201 -0.581688 0.663109 -0.397894 0.4 0.4 0.8
29 0 4.40257 2.20128 0 -0.0585048 -0.378623 0.700012 -0.602665 0.4 0.4 0.8
31 0 0 3.30193 0 0.14962 0.611623 0.690942 0.355148 0.4 0.4 0.8
35 0 1.10064 3.30193 0 -0.187895 0.39764 0.0628059 -0.895898 0.4 0.4 0.8
39 0 2.20128 3.30193 0 -0.0121657 0.39999 0.0334238 -0.915829 0.4 0.4 0.8
43 0 3.30193 3.30193 0 0.249308 -0.626068 -0.321631 -0.66516 0.4 0.4 0.8
47 0 4.40257 3.30193 0 -0.0805924 0.856553 0.376766 0.34332 0.4 0.4 0.8
33 0 0 4.40257 0 0.904006 -0.178969 -0.245028 -0.301173 0.4 0.4 0.8
37 0 1.10064 4.40257 0 0.0799235 -0.536804 -0.453875 -0.706719 0.4 0.4 0.8
41 0 2.20128 4.40257 0 0.674933 0.104969 0.51495 -0.517951 0.4 0.4 0.8
45 0 3.30193 4.40257 0 0.303379 -0.0371612 0.0243289 -0.951834 0.4 0.4 0.8
49 0 4.40257 4.40257 0 0.0744183 0.213888 0.872897 -0.432163 0.4 0.4 0.8
2 0 0 0 1.10064 0.0242565 -0.190529 0.950394 -0.244665 0.4 0.4 0.8
6 0 1.10064 0 1.10064 -0.263413 -0.0700172 0.892797 -0.358644 0.4 0.4 0.8
10 0 2.20128 0 1.10064 0.217469 0.77399 0.173406 0.568838 0.4 0.4 0.8
14 0 3.30193 0 1.10064 0.137992 -0.2499 0.592764 -0.753086 0.4 0.4 0.8
18 0 4.40257 0 1.10064 -0.367743 -0.638675 0.646581 -0.196957 0.4 0.4 0.8
4 0 0 1.10064 1.10064 0.577597 -0.17812 -0.405399 -0.685789 0.4 0.4 0.8
8 0 1.10064 1.10064 1.10064 0.933214 -0.101065 0.0850134 -0.334172 0.4 0.4 0.8
12 0 2.20128 1.10064 1.10064 -0.288413 -0.30902 -0.671411 0.608713 0.4 0.4 0.8
16 0 3.30193 1.10064 1.10064 0.170939 0.616773 0.729262 -0.241966 0.4 0.4 0.8
20 0 4.40257 1.10064 1.10064 0.330452 -0.16263 -0.339389 -0.865545 0.4 0.4 0.8
22 0 0 2.20128 1.10064 -0.6558 0.558445 0.30858 0.40354 0.4 0.4 0.8
24 0 1.10064 2.20128 1.10064 -0.963194 -0.0643413 0.0147097 0.26058 0.4 0.4 0.8
26 0 2.20128 2.20128 1.10064 0.224449 0.603899 -0.749851 -0.150504 0.4 0.4 0.8
28 0 3.30193 2.20128 1.10064 -0.318992 0.131273 -0.735944 0.582578 0.4 0.4 0.8
30 0 4.40257 2.20128 1.10064 -0.11691 0.170215 -0.917252 -0.3406 0.4 0.4 0.8
32 0 0 3.30193 1.10064 -0.425513 0.824749 -0.184226 -0.323711 0.4 0.4 0.8
36 0 1.10064 3.30193 1.10064 0.0427192 0.911347 0.199163 0.357708 0.4 0.4 0.8
40 0 2.20128 3.30193 1.10064 -0.334212 0.03073 -0.645853 0.685735 0.4 0.4 0.8
44 0 3.30193 3.30193 1.10064 0.635302 -0.104562 -0.75015 -0.150773 0.4 0.4 0.8
48 0 4.40257 3.30193 1.10064 -0.479673 -0.0120757 -0.805469 -0.347834 0.4 0.4 0.8
34 0 0 4.40257 1.10064 0.568708 -0.173063 -0.803473 -0.0324129 0.4 0.4 0.8
38 0 1.10064 4.40257 1.10064 -0.794469 0.0204706 -0.385482 -0.468832 0.4 0.4 0.8
42 0 2.20128 4.40257 1.10064 0.572004 0.15229 -0.631087 0.501346 0.4 0.4 0.8
46 0 3.30193 4.40257 1.10064 0.0141983 -0.914466 -0.00512997 0.404382 0.4 0.4 0.8
50 0 4.40257 4.40257 1.10064 -0.490536 -0.307994 -0.539238 -0.61134 0.4 0.4 0.8
51 0 0 0 2.20128 -0.0616651 -0.180629 0.659845 0.726757 0.4 0.4 0.8
55 0 1.10064 0 2.20128 0.143864 -0.415141 0.869805 -0.2245 0.4 0.4 0.8
59 0 2.20128 0 2.20128 -0.146143 -0.272225 0.85194 -0.42277 0.4 0.4 0.8
63 0 3.30193 0 2.20128 0.235243 -0.764713 -0.144056 0.582342 0.4 0.4 0.8
67 0 4.40257 0 2.20128 -0.521095 0.647852 0.552248 -0.0613996 0.4 0.4 0.8
53 0 0 1.10064 2.20128 0.0680953 0.118106 0.368924 -0.919407 0.4 0.4 0.8
57 0 1.10064 1.10064 2.20128 -0.162211 0.709055 -0.437556 -0.528652 0.4 0.4 0.8
61 0 2.20128 1.10064 2.20128 0.369896 -0.635825 0.517298 0.437385 0.4 0.4 0.8
65 0 3.30193 1.10064 2.20128 0.638399 -0.484496 0.193759 -0.565834 0.4 0.4 0.8
69 0 4.40257 1.10064 2.20128 0.354874 -0.161377 -0.675444 -0.625937 0.4 0.4 0.8
71 0 0 2.20128 2.20128 -0.174213 -0.815447 0.486584 0.260639 0.4 0.4 0.8
73 0 1.10064 2.20128 2.20128 0.365649 0.0351131 0.929357 0.0369304 0.4 0.4 0.8
75 0 2.20128 2.20128 2.20128 0.0563035 -0.0736512 0.919625 0.381701 0.4 0.4 0.8
77 0 3.30193 2.20128 2.20128 0.0828504 0.152045 0.514062 0.840094 0.4 0.4 0.8
79 0 4.40257 2.20128 2.20128 0.411463 -0.04847 -0.0672077 -0.907652 0.4 0.4 0.8
81 0 0 3.30193 2.20128 0.406235 0.775516 0.476476 0.080738 0.4 0.4 0.8
85 0 1.10064 3.30193 2.20128 -0.932079 -0.229609 0.186578 -0.20904 0.4 0.4 0.8
89 0 2.20128 3.30193 2.20128 0.757278 0.0329097 0.602142 0.250744 0.4 0.4 0.8
93 0 3.30193 3.30193 2.20128 -0.851779 -0.486788 0.19354 -0.00719171 0.4 0.4 0.8
97 0 4.40257 3.30193 2.20128 -0.315026 0.733286 0.370377 -0.475259 0.4 0.4 0.8
83 0 0 4.40257 2.20128 0.145458 -0.51688 0.813657 0.222801 0.4 0.4 0.8
87 0 1.10064 4.40257 2.20128 -0.83549 -0.537703 -0.112302 0.0148565 0.4 0.4 0.8
91 0 2.20128 4.40257 2.20128 0.503449 0.113984 -0.843116 0.150675 0.4 0.4 0.8
95 0 3.30193 4.40257 2.20128 -0.384246 -0.581519 0.670751 0.253543 0.4 0.4 0.8
99 0 4.40257 4.40257 2.20128 0.510604 -0.211838 -0.246371 0.796058 0.4 0.4 0.8
52 0 0 0 3.30193 -0.851399 0.509206 0.0808565 -0.0963926 0.4 0.4 0.8
56 0 1.10064 0 3.30193 -0.296031 0.694059 -0.640615 -0.142335 0.4 0.4 0.8
60 0 2.20128 0 3.30193 -0.560215 0.299462 -0.0283634 0.771801 0.4 0.4 0.8
64 0 3.30193 0 3.30193 -0.0207949 -0.799201 0.0258515 -0.600147 0.4 0.4 0.8
68 0 4.40257 0 3.30193 0.0943175 0.183837 -0.723865 0.658277 0.4 0.4 0.8
54 0 0 1.10064 3.30193 0.817676 -0.472256 -0.10685 0.311388 0.4 0.4 0.8
58 0 1.10064 1.10064 3.30193 -0.0289578 -0.355008 -0.641953 -0.67899 0.4 0.4 0.8
62 0 2.20128 1.10064 3.30193 -0.0236525 0.321092 -0.900465 0.292408 0.4 0.4 0.8
66 0 3.30193 1.10064 3.30193 0.939336 -0.0662977 -0.226545 0.248856 0.4 0.4 0.8
70 0 4.40257 1.10064 3.30193 0.87749 0.313095 -0.360071 -0.0482883 0.4 0.4 0.8
72 0 0 2.20128 3.30193 -0.462375 -0.885197 0.0447929 0.0250882 0.4 0.4 0.8
74 0 1.10064 2.20128 3.30193 -0.529523 0.70988 -0.333128 0.323576 0.4 0.4 0.8
76 0 2.20128 2.20128 3.30193 0.119213 -0.737668 0.594072 -0.297847 0.4 0.4 0.8
78 0 3.30193 2.20128 3.30193 -0.0913885 0.3039 0.405067 -0.857446 0.4 0.4 0.8
80 0 4.40257 2.20128 3.30193 0.272385 -0.211546 -0.192873 -0.918616 0.4 0.4 0.8
82 0 0 3.30193 3.30193 0.562578 -0.0558124 0.258339 -0.78336 0.4 0.4 0.8
86 0 1.10064 3.30193 3.30193 0.100685 0.0431932 0.367721 -0.92346 0.4 0.4 0.8
90 0 2.20128 3.30193 3.30193 0.703519 -0.60088 -0.334635 0.178954 0.4 0.4 0.8
94 0 3.30193 3.30193 3.30193 -0.0292578 -0.395074 0.851738 0.342932 0.4 0.4 0.8
98 0 4.40257 3.30193 3.30193 0.484085 -0.0276442 0.417543 0.768476 0.4 0.4 0.8
84 0 0 4.40257 3.30193 0.296069 -0.439776 -0.506216 -0.68021 0.4 0.4 0.8
88 0 1.10064 4.40257 3.30193 -0.0737118 0.48747 -0.846799 0.199675 0.4 0.4 0.8
92 0 2.20128 4.40257 3.30193 -0.401555 -0.0137754 0.117446 -0.908169 0.4 0.4 0.8
96 0 3.30193 4.40257 3.30193 0.614117 -0.171151 0.689219 -0.344302 0.4 0.4 0.8
100 0 4.40257 4.40257 3.30193 0.132747 0.731292 -0.668657 0.0220861 0.4 0.4 0.8
ITEM: TIMESTEP
5000
ITEM: NUMBER OF ATOMS
100
ITEM: BOX BOUNDS pp pp pp
0.0000000000000000e+00 5.5032120814910446e+00
0.0000000000000000e+00 5.5032120814910446e+00
0.0000000000000000e+00 4.4025696651928357e+00
ITEM: ATOMS id type x y z quatw quati quatj quatk c_diameter[1] c_diameter[2] c_diameter[3]
1 0 0.113053 0.085008 -0.00480201 -0.18335 0.54547 -0.710272 -0.405413 0.4 0.4 0.8
5 0 1.23491 0.0999564 0.0764353 -0.820187 -0.0797879 -0.382617 0.41777 0.4 0.4 0.8
13 0 3.37399 0.109896 0.105564 -0.0205414 0.58206 -0.466944 0.665393 0.4 0.4 0.8
17 0 4.51596 0.0183864 0.0654308 -0.292047 -0.0722381 0.361414 0.882536 0.4 0.4 0.8
11 0 2.17518 0.960596 0.0657764 0.388591 0.15476 -0.904001 -0.0884753 0.4 0.4 0.8
15 0 3.22472 1.2118 0.00623852 0.272266 -0.00326878 0.199634 0.941279 0.4 0.4 0.8
21 0 0.0719657 2.23436 0.0703071 -0.298129 0.666059 -0.389325 -0.562059 0.4 0.4 0.8
23 0 1.14251 2.27481 0.139292 -0.837118 0.205529 -0.50011 0.0829498 0.4 0.4 0.8
31 0 0.102001 3.36288 0.140251 0.14962 0.611623 0.690942 0.355148 0.4 0.4 0.8
43 0 3.36372 3.41557 0.190997 0.249308 -0.626068 -0.321631 -0.66516 0.4 0.4 0.8
33 0 5.36955 4.48323 -0.0115435 0.904006 -0.178969 -0.245028 -0.301173 0.4 0.4 0.8
9 0 2.30237 5.34667 0.0864369 -0.170587 -0.665455 0.667054 0.288284 0.4 0.4 0.8
2 0 0.103073 0.0402735 1.10012 0.0242565 -0.190529 0.950394 -0.244665 0.4 0.4 0.8
4 0 0.0603979 1.11121 0.865776 0.577597 -0.17812 -0.405399 -0.685789 0.4 0.4 0.8
8 0 1.14767 1.0374 0.997674 0.933214 -0.101065 0.0850134 -0.334172 0.4 0.4 0.8
12 0 2.2692 1.07797 1.18958 -0.288413 -0.30902 -0.671411 0.608713 0.4 0.4 0.8
16 0 3.33741 0.997333 1.09213 0.170939 0.616773 0.729262 -0.241966 0.4 0.4 0.8
20 0 4.42791 0.993125 1.04816 0.330452 -0.16263 -0.339389 -0.865545 0.4 0.4 0.8
22 0 0.0392282 2.19506 1.14621 -0.6558 0.558445 0.30858 0.40354 0.4 0.4 0.8
24 0 1.15015 2.13385 1.24175 -0.963194 -0.0643413 0.0147097 0.26058 0.4 0.4 0.8
26 0 2.24489 2.25705 1.06885 0.224449 0.603899 -0.749851 -0.150504 0.4 0.4 0.8
28 0 3.29636 2.10862 0.909503 -0.318992 0.131273 -0.735944 0.582578 0.4 0.4 0.8
30 0 4.41552 2.13119 0.977447 -0.11691 0.170215 -0.917252 -0.3406 0.4 0.4 0.8
32 0 0.000532248 3.29769 1.22762 -0.425513 0.824749 -0.184226 -0.323711 0.4 0.4 0.8
36 0 1.14775 3.27348 1.12066 0.0427192 0.911347 0.199163 0.357708 0.4 0.4 0.8
40 0 2.27136 3.35856 1.10524 -0.334212 0.03073 -0.645853 0.685735 0.4 0.4 0.8
44 0 3.39544 3.22137 1.29809 0.635302 -0.104562 -0.75015 -0.150773 0.4 0.4 0.8
48 0 4.45695 3.25707 0.991504 -0.479673 -0.0120757 -0.805469 -0.347834 0.4 0.4 0.8
38 0 1.03525 4.37507 1.06567 -0.794469 0.0204706 -0.385482 -0.468832 0.4 0.4 0.8
42 0 2.14537 4.42078 1.06575 0.572004 0.15229 -0.631087 0.501346 0.4 0.4 0.8
46 0 3.24495 4.31925 0.969985 0.0141983 -0.914466 -0.00512997 0.404382 0.4 0.4 0.8
50 0 4.36797 4.33309 1.1099 -0.490536 -0.307994 -0.539238 -0.61134 0.4 0.4 0.8
34 0 5.49685 4.37171 1.06911 0.568708 -0.173063 -0.803473 -0.0324129 0.4 0.4 0.8
6 0 1.22449 5.47653 1.17611 -0.263413 -0.0700172 0.892797 -0.358644 0.4 0.4 0.8
10 0 2.27271 5.47424 1.19881 0.217469 0.77399 0.173406 0.568838 0.4 0.4 0.8
14 0 3.35502 5.41526 1.21703 0.137992 -0.2499 0.592764 -0.753086 0.4 0.4 0.8
18 0 4.47172 5.43874 1.18539 -0.367743 -0.638675 0.646581 -0.196957 0.4 0.4 0.8
53 0 0.0530905 1.0972 1.97145 0.0680953 0.118106 0.368924 -0.919407 0.4 0.4 0.8
57 0 1.1161 0.941807 2.14016 -0.162211 0.709055 -0.437556 -0.528652 0.4 0.4 0.8
65 0 3.32845 1.21343 2.1857 0.638399 -0.484496 0.193759 -0.565834 0.4 0.4 0.8
69 0 4.43322 0.993817 2.15964 0.354874 -0.161377 -0.675444 -0.625937 0.4 0.4 0.8
77 0 3.27974 2.30959 1.9847 0.0828504 0.152045 0.514062 0.840094 0.4 0.4 0.8
79 0 4.37085 2.02967 2.07022 0.411463 -0.04847 -0.0672077 -0.907652 0.4 0.4 0.8
97 0 4.425 3.17666 2.1039 -0.315026 0.733286 0.370377 -0.475259 0.4 0.4 0.8
91 0 2.10154 4.5072 2.17222 0.503449 0.113984 -0.843116 0.150675 0.4 0.4 0.8
95 0 3.2037 4.5026 2.06464 -0.384246 -0.581519 0.670751 0.253543 0.4 0.4 0.8
83 0 5.44249 4.37092 2.16704 0.145458 -0.51688 0.813657 0.222801 0.4 0.4 0.8
51 0 0.0502278 5.48243 2.18476 -0.0616651 -0.180629 0.659845 0.726757 0.4 0.4 0.8
59 0 2.25529 0.0857068 2.30257 -0.146143 -0.272225 0.85194 -0.42277 0.4 0.4 0.8
63 0 3.33786 0.141594 2.31281 0.235243 -0.764713 -0.144056 0.582342 0.4 0.4 0.8
61 0 2.22102 1.20396 2.28311 0.369896 -0.635825 0.517298 0.437385 0.4 0.4 0.8
73 0 1.14126 2.01507 2.3452 0.365649 0.0351131 0.929357 0.0369304 0.4 0.4 0.8
75 0 2.18809 2.30062 2.20799 0.0563035 -0.0736512 0.919625 0.381701 0.4 0.4 0.8
71 0 5.43198 2.13874 2.28944 -0.174213 -0.815447 0.486584 0.260639 0.4 0.4 0.8
85 0 1.16454 3.08189 2.25686 -0.932079 -0.229609 0.186578 -0.20904 0.4 0.4 0.8
81 0 0.00269258 3.23755 2.31795 0.406235 0.775516 0.476476 0.080738 0.4 0.4 0.8
89 0 2.17368 3.43712 2.19141 0.757278 0.0329097 0.602142 0.250744 0.4 0.4 0.8
93 0 3.28254 3.38787 2.37745 -0.851779 -0.486788 0.19354 -0.00719171 0.4 0.4 0.8
87 0 1.05858 4.26099 2.20292 -0.83549 -0.537703 -0.112302 0.0148565 0.4 0.4 0.8
99 0 4.27743 4.28617 2.24715 0.510604 -0.211838 -0.246371 0.796058 0.4 0.4 0.8
55 0 1.1894 5.38864 2.30501 0.143864 -0.415141 0.869805 -0.2245 0.4 0.4 0.8
67 0 4.46867 5.38122 2.28822 -0.521095 0.647852 0.552248 -0.0613996 0.4 0.4 0.8
56 0 1.00392 0.0953203 3.40382 -0.296031 0.694059 -0.640615 -0.142335 0.4 0.4 0.8
60 0 2.10442 0.0406656 3.41763 -0.560215 0.299462 -0.0283634 0.771801 0.4 0.4 0.8
52 0 5.43045 0.0960114 3.32952 -0.851399 0.509206 0.0808565 -0.0963926 0.4 0.4 0.8
58 0 0.928445 1.18554 3.2083 -0.0289578 -0.355008 -0.641953 -0.67899 0.4 0.4 0.8
62 0 2.07227 1.1293 3.37159 -0.0236525 0.321092 -0.900465 0.292408 0.4 0.4 0.8
66 0 3.16833 1.09122 3.28781 0.939336 -0.0662977 -0.226545 0.248856 0.4 0.4 0.8
70 0 4.24198 0.920389 3.27396 0.87749 0.313095 -0.360071 -0.0482883 0.4 0.4 0.8
54 0 5.34431 1.17963 3.06315 0.817676 -0.472256 -0.10685 0.311388 0.4 0.4 0.8
74 0 1.05651 2.31153 3.41321 -0.529523 0.70988 -0.333128 0.323576 0.4 0.4 0.8
76 0 2.17984 2.23889 3.31037 0.119213 -0.737668 0.594072 -0.297847 0.4 0.4 0.8
78 0 3.28345 2.15099 3.13032 -0.0913885 0.3039 0.405067 -0.857446 0.4 0.4 0.8
80 0 4.33456 2.02881 3.18399 0.272385 -0.211546 -0.192873 -0.918616 0.4 0.4 0.8
72 0 5.46916 2.33909 3.36527 -0.462375 -0.885197 0.0447929 0.0250882 0.4 0.4 0.8
86 0 1.11165 3.42761 3.32297 0.100685 0.0431932 0.367721 -0.92346 0.4 0.4 0.8
90 0 2.20141 3.35758 3.28641 0.703519 -0.60088 -0.334635 0.178954 0.4 0.4 0.8
94 0 3.25788 3.29259 3.47758 -0.0292578 -0.395074 0.851738 0.342932 0.4 0.4 0.8
98 0 4.44127 3.12868 3.22675 0.484085 -0.0276442 0.417543 0.768476 0.4 0.4 0.8
82 0 5.49248 3.44057 3.40067 0.562578 -0.0558124 0.258339 -0.78336 0.4 0.4 0.8
88 0 1.06139 4.53768 3.27493 -0.0737118 0.48747 -0.846799 0.199675 0.4 0.4 0.8
92 0 2.22357 4.47865 3.26652 -0.401555 -0.0137754 0.117446 -0.908169 0.4 0.4 0.8
96 0 3.35656 4.37626 3.16637 0.614117 -0.171151 0.689219 -0.344302 0.4 0.4 0.8
100 0 4.42953 4.22624 3.34588 0.132747 0.731292 -0.668657 0.0220861 0.4 0.4 0.8
84 0 5.47881 4.51578 3.2947 0.296069 -0.439776 -0.506216 -0.68021 0.4 0.4 0.8
64 0 3.19888 5.48948 3.42303 -0.0207949 -0.799201 0.0258515 -0.600147 0.4 0.4 0.8
68 0 4.32156 5.35271 3.39347 0.0943175 0.183837 -0.723865 0.658277 0.4 0.4 0.8
7 0 1.10429 1.19894 4.29511 -0.00120791 0.163333 -0.985712 0.0411425 0.4 0.4 0.8
19 0 4.35473 1.12006 4.36667 0.511302 0.61886 -0.299918 -0.515395 0.4 0.4 0.8
3 0 5.46881 1.20719 4.15613 -0.295753 -0.690255 -0.645208 -0.14066 0.4 0.4 0.8
25 0 2.23272 2.09021 4.38409 -0.0841067 0.497521 0.808701 0.302328 0.4 0.4 0.8
27 0 3.34151 2.37198 4.22325 0.252201 -0.581688 0.663109 -0.397894 0.4 0.4 0.8
29 0 4.42263 2.31967 4.25428 -0.0585048 -0.378623 0.700012 -0.602665 0.4 0.4 0.8
35 0 1.19926 3.39629 4.42506 -0.187895 0.39764 0.0628059 -0.895898 0.4 0.4 0.8
39 0 2.34103 3.20807 4.37156 -0.0121657 0.39999 0.0334238 -0.915829 0.4 0.4 0.8
47 0 4.47627 3.40983 4.2887 -0.0805924 0.856553 0.376766 0.34332 0.4 0.4 0.8
37 0 1.00972 4.461 4.37385 0.0799235 -0.536804 -0.453875 -0.706719 0.4 0.4 0.8
41 0 2.11867 4.29501 4.37877 0.674933 0.104969 0.51495 -0.517951 0.4 0.4 0.8
45 0 3.22508 4.49292 4.2622 0.303379 -0.0371612 0.0243289 -0.951834 0.4 0.4 0.8
49 0 4.3077 4.46663 4.4109 0.0744183 0.213888 0.872897 -0.432163 0.4 0.4 0.8
ITEM: TIMESTEP
10000
ITEM: NUMBER OF ATOMS
100
ITEM: BOX BOUNDS pp pp pp
0.0000000000000000e+00 5.5032120814910446e+00
0.0000000000000000e+00 5.5032120814910446e+00
0.0000000000000000e+00 4.4025696651928357e+00
ITEM: ATOMS id type x y z quatw quati quatj quatk c_diameter[1] c_diameter[2] c_diameter[3]
5 0 1.29339 0.110079 0.233753 -0.820187 -0.0797879 -0.382617 0.41777 0.4 0.4 0.8
13 0 3.56529 0.241022 0.188063 -0.0205414 0.58206 -0.466944 0.665393 0.4 0.4 0.8
17 0 4.67277 0.162924 0.188139 -0.292047 -0.0722381 0.361414 0.882536 0.4 0.4 0.8
4 0 0.0904238 1.183 0.544276 0.577597 -0.17812 -0.405399 -0.685789 0.4 0.4 0.8
11 0 2.21479 0.815991 0.155693 0.388591 0.15476 -0.904001 -0.0884753 0.4 0.4 0.8
21 0 0.0427895 2.31573 0.18504 -0.298129 0.666059 -0.389325 -0.562059 0.4 0.4 0.8
23 0 1.3298 2.32114 0.306995 -0.837118 0.205529 -0.50011 0.0829498 0.4 0.4 0.8
25 0 2.31143 1.90057 -0.00569892 -0.0841067 0.497521 0.808701 0.302328 0.4 0.4 0.8
31 0 0.217226 3.44898 0.322513 0.14962 0.611623 0.690942 0.355148 0.4 0.4 0.8
35 0 1.26226 3.39621 0.0939339 -0.187895 0.39764 0.0628059 -0.895898 0.4 0.4 0.8
43 0 3.61203 3.44618 0.285579 0.249308 -0.626068 -0.321631 -0.66516 0.4 0.4 0.8
49 0 4.04608 4.56897 0.0847729 0.0744183 0.213888 0.872897 -0.432163 0.4 0.4 0.8
9 0 2.39129 5.26496 0.218035 -0.170587 -0.665455 0.667054 0.288284 0.4 0.4 0.8
2 0 0.205509 0.124531 1.02945 0.0242565 -0.190529 0.950394 -0.244665 0.4 0.4 0.8
10 0 2.44194 0.0608895 1.28477 0.217469 0.77399 0.173406 0.568838 0.4 0.4 0.8
8 0 1.1218 1.03903 0.905618 0.933214 -0.101065 0.0850134 -0.334172 0.4 0.4 0.8
12 0 2.27986 1.12653 1.25807 -0.288413 -0.30902 -0.671411 0.608713 0.4 0.4 0.8
16 0 3.40995 0.929573 1.09939 0.170939 0.616773 0.729262 -0.241966 0.4 0.4 0.8
20 0 4.62141 0.98204 1.04607 0.330452 -0.16263 -0.339389 -0.865545 0.4 0.4 0.8
22 0 0.0319658 2.08467 1.24591 -0.6558 0.558445 0.30858 0.40354 0.4 0.4 0.8
24 0 1.14182 2.07331 1.38963 -0.963194 -0.0643413 0.0147097 0.26058 0.4 0.4 0.8
26 0 2.29485 2.26306 1.04952 0.224449 0.603899 -0.749851 -0.150504 0.4 0.4 0.8
28 0 3.34568 1.97068 0.804611 -0.318992 0.131273 -0.735944 0.582578 0.4 0.4 0.8
30 0 4.4767 2.03546 0.764044 -0.11691 0.170215 -0.917252 -0.3406 0.4 0.4 0.8
48 0 4.4701 3.10083 0.909038 -0.479673 -0.0120757 -0.805469 -0.347834 0.4 0.4 0.8
32 0 0.103322 3.26845 1.41647 -0.425513 0.824749 -0.184226 -0.323711 0.4 0.4 0.8
36 0 1.21785 3.17991 1.21939 0.0427192 0.911347 0.199163 0.357708 0.4 0.4 0.8
40 0 2.4914 3.42877 0.971001 -0.334212 0.03073 -0.645853 0.685735 0.4 0.4 0.8
44 0 3.52626 3.41656 1.42667 0.635302 -0.104562 -0.75015 -0.150773 0.4 0.4 0.8
38 0 1.00018 4.25292 1.02053 -0.794469 0.0204706 -0.385482 -0.468832 0.4 0.4 0.8
42 0 2.08084 4.52381 0.969214 0.572004 0.15229 -0.631087 0.501346 0.4 0.4 0.8
46 0 3.18435 4.37954 0.807358 0.0141983 -0.914466 -0.00512997 0.404382 0.4 0.4 0.8
50 0 4.21701 4.15675 1.15075 -0.490536 -0.307994 -0.539238 -0.61134 0.4 0.4 0.8
34 0 5.38822 4.47605 1.01725 0.568708 -0.173063 -0.803473 -0.0324129 0.4 0.4 0.8
6 0 1.27853 5.33592 1.35776 -0.263413 -0.0700172 0.892797 -0.358644 0.4 0.4 0.8
14 0 3.56149 5.35157 1.2513 0.137992 -0.2499 0.592764 -0.753086 0.4 0.4 0.8
18 0 4.66357 5.2981 1.33574 -0.367743 -0.638675 0.646581 -0.196957 0.4 0.4 0.8
57 0 1.26618 0.763509 1.96544 -0.162211 0.709055 -0.437556 -0.528652 0.4 0.4 0.8
69 0 4.44356 0.666421 2.07468 0.354874 -0.161377 -0.675444 -0.625937 0.4 0.4 0.8
53 0 0.023305 1.05557 1.6431 0.0680953 0.118106 0.368924 -0.919407 0.4 0.4 0.8
77 0 3.18247 2.35732 1.76605 0.0828504 0.152045 0.514062 0.840094 0.4 0.4 0.8
79 0 4.26459 1.86525 1.84921 0.411463 -0.04847 -0.0672077 -0.907652 0.4 0.4 0.8
75 0 2.13348 2.50496 2.17196 0.0563035 -0.0736512 0.919625 0.381701 0.4 0.4 0.8
97 0 4.43813 3.0959 1.98372 -0.315026 0.733286 0.370377 -0.475259 0.4 0.4 0.8
89 0 2.23641 3.62283 2.16938 0.757278 0.0329097 0.602142 0.250744 0.4 0.4 0.8
87 0 0.845242 3.93488 2.11921 -0.83549 -0.537703 -0.112302 0.0148565 0.4 0.4 0.8
91 0 2.04347 4.6842 2.12429 0.503449 0.113984 -0.843116 0.150675 0.4 0.4 0.8
95 0 3.12407 4.61366 1.98693 -0.384246 -0.581519 0.670751 0.253543 0.4 0.4 0.8
83 0 5.30282 4.30199 2.11532 0.145458 -0.51688 0.813657 0.222801 0.4 0.4 0.8
59 0 2.34963 0.269862 2.5562 -0.146143 -0.272225 0.85194 -0.42277 0.4 0.4 0.8
63 0 3.52695 0.211842 2.5114 0.235243 -0.764713 -0.144056 0.582342 0.4 0.4 0.8
61 0 2.2435 1.39573 2.42977 0.369896 -0.635825 0.517298 0.437385 0.4 0.4 0.8
65 0 3.38806 1.28602 2.30423 0.638399 -0.484496 0.193759 -0.565834 0.4 0.4 0.8
54 0 5.18113 1.19204 2.74002 0.817676 -0.472256 -0.10685 0.311388 0.4 0.4 0.8
73 0 1.26775 1.82 2.44157 0.365649 0.0351131 0.929357 0.0369304 0.4 0.4 0.8
71 0 5.40353 2.21795 2.34878 -0.174213 -0.815447 0.486584 0.260639 0.4 0.4 0.8
85 0 1.10277 2.88123 2.29939 -0.932079 -0.229609 0.186578 -0.20904 0.4 0.4 0.8
81 0 0.0294013 3.26643 2.53368 0.406235 0.775516 0.476476 0.080738 0.4 0.4 0.8
93 0 3.31121 3.34466 2.49943 -0.851779 -0.486788 0.19354 -0.00719171 0.4 0.4 0.8
99 0 4.09345 4.08342 2.26941 0.510604 -0.211838 -0.246371 0.796058 0.4 0.4 0.8
51 0 0.137527 5.51204 2.30262 -0.0616651 -0.180629 0.659845 0.726757 0.4 0.4 0.8
55 0 1.2011 5.28376 2.47386 0.143864 -0.415141 0.869805 -0.2245 0.4 0.4 0.8
67 0 4.48213 5.10167 2.46513 -0.521095 0.647852 0.552248 -0.0613996 0.4 0.4 0.8
56 0 0.878199 0.156656 3.47249 -0.296031 0.694059 -0.640615 -0.142335 0.4 0.4 0.8
60 0 2.01283 0.115067 3.64594 -0.560215 0.299462 -0.0283634 0.771801 0.4 0.4 0.8
70 0 4.15828 0.654148 3.22248 0.87749 0.313095 -0.360071 -0.0482883 0.4 0.4 0.8
52 0 5.14074 0.234787 3.33541 -0.851399 0.509206 0.0808565 -0.0963926 0.4 0.4 0.8
58 0 0.718518 1.29726 3.15005 -0.0289578 -0.355008 -0.641953 -0.67899 0.4 0.4 0.8
62 0 1.82037 1.23929 3.51169 -0.0236525 0.321092 -0.900465 0.292408 0.4 0.4 0.8
66 0 2.92983 1.00064 3.25281 0.939336 -0.0662977 -0.226545 0.248856 0.4 0.4 0.8
76 0 2.08569 2.27273 3.28677 0.119213 -0.737668 0.594072 -0.297847 0.4 0.4 0.8
78 0 3.14383 2.20536 2.94896 -0.0913885 0.3039 0.405067 -0.857446 0.4 0.4 0.8
80 0 4.34998 1.86133 3.13411 0.272385 -0.211546 -0.192873 -0.918616 0.4 0.4 0.8
74 0 1.00243 2.45223 3.60358 -0.529523 0.70988 -0.333128 0.323576 0.4 0.4 0.8
98 0 4.50613 2.98718 3.10593 0.484085 -0.0276442 0.417543 0.768476 0.4 0.4 0.8
72 0 5.40981 2.37587 3.44306 -0.462375 -0.885197 0.0447929 0.0250882 0.4 0.4 0.8
86 0 0.983211 3.49356 3.2046 0.100685 0.0431932 0.367721 -0.92346 0.4 0.4 0.8
90 0 2.1331 3.41775 3.28109 0.703519 -0.60088 -0.334635 0.178954 0.4 0.4 0.8
94 0 3.33341 3.53216 3.58881 -0.0292578 -0.395074 0.851738 0.342932 0.4 0.4 0.8
82 0 5.46883 3.66357 3.52375 0.562578 -0.0558124 0.258339 -0.78336 0.4 0.4 0.8
88 0 1.15116 4.55876 3.35386 -0.0737118 0.48747 -0.846799 0.199675 0.4 0.4 0.8
92 0 2.31867 4.53722 3.20029 -0.401555 -0.0137754 0.117446 -0.908169 0.4 0.4 0.8
96 0 3.44241 4.545 3.02005 0.614117 -0.171151 0.689219 -0.344302 0.4 0.4 0.8
100 0 4.48954 4.05609 3.25753 0.132747 0.731292 -0.668657 0.0220861 0.4 0.4 0.8
84 0 5.44274 4.71974 3.24172 0.296069 -0.439776 -0.506216 -0.68021 0.4 0.4 0.8
64 0 3.14806 5.45864 3.51829 -0.0207949 -0.799201 0.0258515 -0.600147 0.4 0.4 0.8
68 0 4.1979 5.1148 3.55739 0.0943175 0.183837 -0.723865 0.658277 0.4 0.4 0.8
1 0 0.221203 0.260794 4.32556 -0.18335 0.54547 -0.710272 -0.405413 0.4 0.4 0.8
7 0 1.03461 1.37218 4.28075 -0.00120791 0.163333 -0.985712 0.0411425 0.4 0.4 0.8
15 0 3.22042 1.28966 4.26431 0.272266 -0.00326878 0.199634 0.941279 0.4 0.4 0.8
19 0 4.3137 1.26384 4.22092 0.511302 0.61886 -0.299918 -0.515395 0.4 0.4 0.8
3 0 5.30699 1.18154 3.91249 -0.295753 -0.690255 -0.645208 -0.14066 0.4 0.4 0.8
39 0 2.36797 2.95066 4.31622 -0.0121657 0.39999 0.0334238 -0.915829 0.4 0.4 0.8
27 0 3.29264 2.40157 4.12426 0.252201 -0.581688 0.663109 -0.397894 0.4 0.4 0.8
29 0 4.54207 2.35807 4.10042 -0.0585048 -0.378623 0.700012 -0.602665 0.4 0.4 0.8
47 0 4.67036 3.44654 4.25384 -0.0805924 0.856553 0.376766 0.34332 0.4 0.4 0.8
37 0 0.947835 4.61551 4.4079 0.0799235 -0.536804 -0.453875 -0.706719 0.4 0.4 0.8
41 0 2.08458 4.16391 4.24843 0.674933 0.104969 0.51495 -0.517951 0.4 0.4 0.8
45 0 3.07956 4.45308 4.01499 0.303379 -0.0371612 0.0243289 -0.951834 0.4 0.4 0.8
33 0 5.18697 4.58235 4.32359 0.904006 -0.178969 -0.245028 -0.301173 0.4 0.4 0.8
ITEM: TIMESTEP
15000
ITEM: NUMBER OF ATOMS
100
ITEM: BOX BOUNDS pp pp pp
0.0000000000000000e+00 5.5032120814910446e+00
0.0000000000000000e+00 5.5032120814910446e+00
0.0000000000000000e+00 4.4025696651928357e+00
ITEM: ATOMS id type x y z quatw quati quatj quatk c_diameter[1] c_diameter[2] c_diameter[3]
5 0 1.32553 0.115269 0.328204 -0.820187 -0.0797879 -0.382617 0.41777 0.4 0.4 0.8
11 0 2.29004 0.758731 0.335586 0.388591 0.15476 -0.904001 -0.0884753 0.4 0.4 0.8
13 0 3.62409 0.225123 0.150529 -0.0205414 0.58206 -0.466944 0.665393 0.4 0.4 0.8
17 0 4.69532 0.0729302 0.162179 -0.292047 -0.0722381 0.361414 0.882536 0.4 0.4 0.8
4 0 -0.0342193 1.30217 0.503416 0.577597 -0.17812 -0.405399 -0.685789 0.4 0.4 0.8
23 0 1.41026 2.31528 0.416771 -0.837118 0.205529 -0.50011 0.0829498 0.4 0.4 0.8
28 0 3.45675 2.10557 0.640123 -0.318992 0.131273 -0.735944 0.582578 0.4 0.4 0.8
30 0 4.56854 1.97248 0.691576 -0.11691 0.170215 -0.917252 -0.3406 0.4 0.4 0.8
21 0 0.0572843 2.45985 0.140664 -0.298129 0.666059 -0.389325 -0.562059 0.4 0.4 0.8
31 0 0.133641 3.46921 0.475054 0.14962 0.611623 0.690942 0.355148 0.4 0.4 0.8
35 0 1.22589 3.42006 0.0849659 -0.187895 0.39764 0.0628059 -0.895898 0.4 0.4 0.8
43 0 3.62502 3.45932 0.314576 0.249308 -0.626068 -0.321631 -0.66516 0.4 0.4 0.8
37 0 0.775384 4.6175 0.0257166 0.0799235 -0.536804 -0.453875 -0.706719 0.4 0.4 0.8
46 0 3.07028 4.42534 0.711236 0.0141983 -0.914466 -0.00512997 0.404382 0.4 0.4 0.8
49 0 3.99617 4.70495 0.242014 0.0744183 0.213888 0.872897 -0.432163 0.4 0.4 0.8
9 0 2.44598 5.17985 0.204487 -0.170587 -0.665455 0.667054 0.288284 0.4 0.4 0.8
2 0 0.412476 0.074888 0.995951 0.0242565 -0.190529 0.950394 -0.244665 0.4 0.4 0.8
8 0 1.13858 0.985392 1.00291 0.933214 -0.101065 0.0850134 -0.334172 0.4 0.4 0.8
12 0 2.32091 1.18057 1.30078 -0.288413 -0.30902 -0.671411 0.608713 0.4 0.4 0.8
16 0 3.42538 0.944947 1.3206 0.170939 0.616773 0.729262 -0.241966 0.4 0.4 0.8
20 0 4.62134 0.816004 1.07503 0.330452 -0.16263 -0.339389 -0.865545 0.4 0.4 0.8
24 0 1.01013 2.01324 1.42452 -0.963194 -0.0643413 0.0147097 0.26058 0.4 0.4 0.8
22 0 5.45399 2.14203 1.24505 -0.6558 0.558445 0.30858 0.40354 0.4 0.4 0.8
36 0 1.35152 3.0678 1.22003 0.0427192 0.911347 0.199163 0.357708 0.4 0.4 0.8
26 0 2.36074 2.39013 0.926169 0.224449 0.603899 -0.749851 -0.150504 0.4 0.4 0.8
48 0 4.70351 3.02747 0.888837 -0.479673 -0.0120757 -0.805469 -0.347834 0.4 0.4 0.8
40 0 2.52738 3.4481 0.79717 -0.334212 0.03073 -0.645853 0.685735 0.4 0.4 0.8
44 0 3.49409 3.37829 1.37923 0.635302 -0.104562 -0.75015 -0.150773 0.4 0.4 0.8
38 0 0.975047 4.08136 1.01162 -0.794469 0.0204706 -0.385482 -0.468832 0.4 0.4 0.8
42 0 1.98373 4.38341 0.985528 0.572004 0.15229 -0.631087 0.501346 0.4 0.4 0.8
50 0 4.4469 4.17939 1.17884 -0.490536 -0.307994 -0.539238 -0.61134 0.4 0.4 0.8
34 0 5.49068 4.57583 0.796286 0.568708 -0.173063 -0.803473 -0.0324129 0.4 0.4 0.8
6 0 1.32447 5.1642 1.45402 -0.263413 -0.0700172 0.892797 -0.358644 0.4 0.4 0.8
14 0 3.72411 5.38045 1.16256 0.137992 -0.2499 0.592764 -0.753086 0.4 0.4 0.8
57 0 1.51927 0.778435 2.01836 -0.162211 0.709055 -0.437556 -0.528652 0.4 0.4 0.8
10 0 2.58142 0.0316795 1.48736 0.217469 0.77399 0.173406 0.568838 0.4 0.4 0.8
69 0 4.25334 0.495295 2.0377 0.354874 -0.161377 -0.675444 -0.625937 0.4 0.4 0.8
53 0 0.209098 1.01348 1.56254 0.0680953 0.118106 0.368924 -0.919407 0.4 0.4 0.8
79 0 4.30144 1.67196 1.70582 0.411463 -0.04847 -0.0672077 -0.907652 0.4 0.4 0.8
75 0 2.02368 2.64776 2.17454 0.0563035 -0.0736512 0.919625 0.381701 0.4 0.4 0.8
77 0 3.19022 2.32331 1.69845 0.0828504 0.152045 0.514062 0.840094 0.4 0.4 0.8
97 0 4.53967 2.82044 1.94793 -0.315026 0.733286 0.370377 -0.475259 0.4 0.4 0.8
32 0 0.188473 3.20712 1.5826 -0.425513 0.824749 -0.184226 -0.323711 0.4 0.4 0.8
89 0 2.38662 3.73025 2.16883 0.757278 0.0329097 0.602142 0.250744 0.4 0.4 0.8
87 0 0.800393 3.96365 2.23762 -0.83549 -0.537703 -0.112302 0.0148565 0.4 0.4 0.8
95 0 3.06856 4.53549 1.77639 -0.384246 -0.581519 0.670751 0.253543 0.4 0.4 0.8
99 0 4.06745 4.00819 2.21235 0.510604 -0.211838 -0.246371 0.796058 0.4 0.4 0.8
83 0 5.13863 4.20443 2.02032 0.145458 -0.51688 0.813657 0.222801 0.4 0.4 0.8
91 0 2.03755 4.73214 2.09241 0.503449 0.113984 -0.843116 0.150675 0.4 0.4 0.8
18 0 4.9226 5.15394 1.49123 -0.367743 -0.638675 0.646581 -0.196957 0.4 0.4 0.8
59 0 2.19565 0.201052 2.60169 -0.146143 -0.272225 0.85194 -0.42277 0.4 0.4 0.8
63 0 3.25003 0.12392 2.33126 0.235243 -0.764713 -0.144056 0.582342 0.4 0.4 0.8
51 0 5.39408 0.142827 2.34356 -0.0616651 -0.180629 0.659845 0.726757 0.4 0.4 0.8
61 0 2.45064 1.57689 2.30781 0.369896 -0.635825 0.517298 0.437385 0.4 0.4 0.8
65 0 3.49318 1.18331 2.38278 0.638399 -0.484496 0.193759 -0.565834 0.4 0.4 0.8
54 0 4.97737 1.21153 2.49434 0.817676 -0.472256 -0.10685 0.311388 0.4 0.4 0.8
73 0 1.35252 1.82922 2.57562 0.365649 0.0351131 0.929357 0.0369304 0.4 0.4 0.8
78 0 3.09992 2.13226 2.89553 -0.0913885 0.3039 0.405067 -0.857446 0.4 0.4 0.8
71 0 5.38357 2.25777 2.33442 -0.174213 -0.815447 0.486584 0.260639 0.4 0.4 0.8
85 0 0.905659 2.79184 2.23437 -0.932079 -0.229609 0.186578 -0.20904 0.4 0.4 0.8
93 0 3.24738 3.23553 2.58038 -0.851779 -0.486788 0.19354 -0.00719171 0.4 0.4 0.8
81 0 5.43508 3.35293 2.79349 0.406235 0.775516 0.476476 0.080738 0.4 0.4 0.8
96 0 3.51507 4.60213 2.94217 0.614117 -0.171151 0.689219 -0.344302 0.4 0.4 0.8
55 0 1.18845 5.29309 2.51325 0.143864 -0.415141 0.869805 -0.2245 0.4 0.4 0.8
67 0 4.55905 4.99882 2.63578 -0.521095 0.647852 0.552248 -0.0613996 0.4 0.4 0.8
56 0 0.894958 0.0851724 3.52213 -0.296031 0.694059 -0.640615 -0.142335 0.4 0.4 0.8
64 0 2.97761 0.0254606 3.60269 -0.0207949 -0.799201 0.0258515 -0.600147 0.4 0.4 0.8