LAMMPS (29 Aug 2024 - Development - patch_29Aug2024-409-g5d879678f6-modified)
KOKKOS mode with Kokkos version 4.3.1 is enabled (../kokkos.cpp:72)
  will use up to 1 GPU(s) per node
  using 2 OpenMP thread(s) per MPI task
package kokkos
package kokkos comm no
###
# Box and units  (use LJ units and periodic boundaries)
###

units           lj
atom_style      ellipsoid
dimension	3
boundary	p p p

lattice		sc 0.75
Lattice spacing in x,y,z = 1.1006424 1.1006424 1.1006424
region		box block 0 5 0 5 0 4
create_box	1 box
Created orthogonal box = (0 0 0) to (5.5032121 5.5032121 4.4025697)
  1 by 1 by 1 MPI processor grid
create_atoms	1 box
Created 100 atoms
  using lattice units in orthogonal box = (0 0 0) to (5.5032121 5.5032121 4.4025697)
  create_atoms CPU = 0.010 seconds

group           all type 1
100 atoms in group all
set             type 1 mass 1.0
Setting atom values ...
  100 settings made for mass
set             type 1 shape 0.4 0.4 0.8
Setting atom values ...
  100 settings made for shape
set             type 1 quat/random 29898
Setting atom values ...
  100 settings made for quat/random

velocity 	all create 0.1 87287 loop geom

neighbor        0.3 bin
neigh_modify    delay 0 every 100 check yes

###################################################################
# Pair interaction between non-bonded atoms
#
#  Lennard-Jones 12-6 potential with cutoff:
#  potential E=4epsilon[ (sigma/r)^12 - (sigma/r)^6]  for r<r_cut
#
#  1.12246152962189 = 2^(1/6) is the minimum of the potential

pair_style      lj/cut 1.12246152962189

#
#  pair_coeff for lj/cut, specify 4:
#    * atom type interacting with
#    * atom type
#    * epsilon (energy units)
#    * sigma (distance units)
#

pair_coeff      1 1 1.0 1.0

#
#  pair_modify shift yes adds a constant to the potential such
#  that E(r_cut)=0. Forces remains unchanged.
#

pair_modify     shift yes

###################################################
reset_atoms 	id sort yes
Resetting atom IDs ...
Generated 0 of 0 mixed pair_coeff terms from geometric mixing rule
Neighbor list info ...
  update: every = 100 steps, delay = 0 steps, check = yes
  max neighbors/atom: 2000, page size: 100000
  master list distance cutoff = 1.4224615
  ghost atom cutoff = 1.4224615
  binsize = 1.4224615, bins = 4 4 4
  1 neighbor lists, perpetual/occasional/extra = 1 0 0
  (1) pair lj/cut/kk, perpetual
      attributes: full, newton off, kokkos_device
      pair build: full/bin/kk/device
      stencil: full/bin/3d
      bin: kk/device

comm_modify cutoff 6
#comm_style tiled
#balance 1.2 rcb

###
# Set up fixes
###

fix 1 all   nve/asphere   ###NVE ensemble
#fix 2 all   langevin   1.0 1.0   2.0   424242   ###Langevin integrator Tstart Tstop 1/friction rndseed

compute ekin all ke
compute epot all pe
variable ekin equal c_ekin
variable epot equal c_epot
variable etot equal c_ekin+c_epot

fix 3 all print 100 "$(step)  ekin = ${ekin} | epot = ${epot} | etot = ${etot}" screen yes

compute q all property/atom quatw quati quatj quatk
compute diameter all property/atom shapex shapey shapez
dump 1 all custom 5000 dump.polymer id type x y z c_q[1] c_q[2] c_q[3] c_q[4] c_diameter[1] c_diameter[2] c_diameter[3]
dump_modify 1 colname c_q[1] quatw colname c_q[2] quati colname c_q[3] quatj colname c_q[4] quatk

###################################################

timestep 0.0001 #0.012

run 20000
Generated 0 of 0 mixed pair_coeff terms from geometric mixing rule
0  ekin = 14.85 | epot = 4.68749999769384 | etot = 19.5374999976938
Per MPI rank memory allocation (min/avg/max) = 6.96 | 6.96 | 6.96 Mbytes
   Step          Temp          E_pair         E_mol          TotEng         Press     
         0   0.1            0.046875       0              0.195375       1.339875     
100  ekin = 14.6080903939163 | epot = 4.92940971780027 | etot = 19.5375001117166
200  ekin = 13.9027725396376 | epot = 5.63472795032067 | etot = 19.5375004899583
300  ekin = 12.8002324366482 | epot = 6.7372689803933 | etot = 19.5375014170415
400  ekin = 11.4340627495521 | epot = 8.10343975644886 | etot = 19.537502506001
500  ekin = 9.95752426236505 | epot = 9.57997912053213 | etot = 19.5375033828972
600  ekin = 8.50959204441843 | epot = 11.0279121675993 | etot = 19.5375042120177
700  ekin = 7.22220228943416 | epot = 12.315302628214 | etot = 19.5375049176482
800  ekin = 6.20783281940403 | epot = 13.3296726127522 | etot = 19.5375054321563
900  ekin = 5.54680259685232 | epot = 13.9907030485301 | etot = 19.5375056453824
1000  ekin = 5.27297151940316 | epot = 14.2645340052556 | etot = 19.5375055246588
1100  ekin = 5.36775843029303 | epot = 14.1697466668682 | etot = 19.5375050971612
1200  ekin = 5.76429288569602 | epot = 13.7732115733983 | etot = 19.5375044590943
1300  ekin = 6.36108505156423 | epot = 13.1764186686941 | etot = 19.5375037202583
1400  ekin = 7.04184989144828 | epot = 12.4956531705953 | etot = 19.5375030620436
1500  ekin = 7.70038915273064 | epot = 11.8371133814458 | etot = 19.5375025341765
1600  ekin = 8.25383347665662 | epot = 11.2836687765648 | etot = 19.5375022532214
1700  ekin = 8.65345760590207 | epot = 10.8840445649413 | etot = 19.5375021708433
1800  ekin = 8.88740221411335 | epot = 10.6501001080934 | etot = 19.5375023222068
1900  ekin = 8.9759145415372 | epot = 10.5615880571419 | etot = 19.5375025986791
2000  ekin = 8.96319151294625 | epot = 10.5743115745214 | etot = 19.5375030874677
2100  ekin = 8.9131443000039 | epot = 10.6243592455504 | etot = 19.5375035455543
2200  ekin = 8.89860690658511 | epot = 10.6388970573756 | etot = 19.5375039639607
2300  ekin = 8.97570394097297 | epot = 10.56180012942 | etot = 19.537504070393
2400  ekin = 9.16761515931865 | epot = 10.3698889448596 | etot = 19.5375041041783
2500  ekin = 9.47551618407514 | epot = 10.0619877976144 | etot = 19.5375039816896
2600  ekin = 9.88191794179092 | epot = 9.65558587251893 | etot = 19.5375038143099
2700  ekin = 10.3576141224249 | epot = 9.17988947138828 | etot = 19.5375035938132
2800  ekin = 10.8677363965079 | epot = 8.66976698224067 | etot = 19.5375033787486
2900  ekin = 11.3761945851109 | epot = 8.16130852446571 | etot = 19.5375031095766
3000  ekin = 11.8448137391743 | epot = 7.69268922274448 | etot = 19.5375029619188
3100  ekin = 12.2480059732321 | epot = 7.28949681649416 | etot = 19.5375027897262
3200  ekin = 12.5669464578692 | epot = 6.97055632073151 | etot = 19.5375027786007
3300  ekin = 12.7959765970335 | epot = 6.74152621402844 | etot = 19.537502811062
3400  ekin = 12.9386758475342 | epot = 6.59882703948238 | etot = 19.5375028870166
3500  ekin = 13.0034835775441 | epot = 6.53401938498066 | etot = 19.5375029625248
3600  ekin = 13.0037242267587 | epot = 6.5337789250137 | etot = 19.5375031517724
3700  ekin = 12.9615708567892 | epot = 6.57593245034425 | etot = 19.5375033071334
3800  ekin = 12.8968589427355 | epot = 6.64064441611673 | etot = 19.5375033588522
3900  ekin = 12.816099021297 | epot = 6.72140439639786 | etot = 19.5375034176949
4000  ekin = 12.7265564742516 | epot = 6.81094705311951 | etot = 19.5375035273711
4100  ekin = 12.6409002337852 | epot = 6.89660332191355 | etot = 19.5375035556988
4200  ekin = 12.5683776111228 | epot = 6.96912595347603 | etot = 19.5375035645988
4300  ekin = 12.5160679468439 | epot = 7.02143565624318 | etot = 19.5375036030871
4400  ekin = 12.4913552368643 | epot = 7.04614844014552 | etot = 19.5375036770098
4500  ekin = 12.5075417698364 | epot = 7.0299620111594 | etot = 19.5375037809958
4600  ekin = 12.5804486736361 | epot = 6.95705520115535 | etot = 19.5375038747914
4700  ekin = 12.7228365324131 | epot = 6.81466740517508 | etot = 19.5375039375882
4800  ekin = 12.9435326710186 | epot = 6.5939713282066 | etot = 19.5375039992252
4900  ekin = 13.2464375909577 | epot = 6.29106633962556 | etot = 19.5375039305832
5000  ekin = 13.6207282563594 | epot = 5.91677553096708 | etot = 19.5375037873264
5100  ekin = 14.042296261291 | epot = 5.49520732237436 | etot = 19.5375035836654
5200  ekin = 14.4797310462169 | epot = 5.05777247131888 | etot = 19.5375035175358
5300  ekin = 14.9095776220385 | epot = 4.62792573168939 | etot = 19.5375033537279
5400  ekin = 15.3032863236554 | epot = 4.23421690572484 | etot = 19.5375032293802
5500  ekin = 15.6367558809992 | epot = 3.90074719695364 | etot = 19.5375030779529
5600  ekin = 15.8907871878721 | epot = 3.64671584474931 | etot = 19.5375030326214
5700  ekin = 16.0565738231805 | epot = 3.48092929731877 | etot = 19.5375031204993
5800  ekin = 16.1394868443611 | epot = 3.39801634797306 | etot = 19.5375031923341
5900  ekin = 16.1440785878565 | epot = 3.39342475790877 | etot = 19.5375033457653
6000  ekin = 16.086741327718 | epot = 3.45076224402348 | etot = 19.5375035717415
6100  ekin = 15.9939431729031 | epot = 3.5435605564046 | etot = 19.5375037293077
6200  ekin = 15.8883932962838 | epot = 3.64911055801233 | etot = 19.5375038542961
6300  ekin = 15.7909452710195 | epot = 3.74655869163589 | etot = 19.5375039626554
6400  ekin = 15.7209864663348 | epot = 3.81651758930337 | etot = 19.5375040556382
6500  ekin = 15.6913842727131 | epot = 3.84611975622854 | etot = 19.5375040289416
6600  ekin = 15.7029595546565 | epot = 3.83454438818611 | etot = 19.5375039428426
6700  ekin = 15.7449271326365 | epot = 3.79257682034637 | etot = 19.5375039529829
6800  ekin = 15.8095895220162 | epot = 3.72791422049108 | etot = 19.5375037425073
6900  ekin = 15.8719497284726 | epot = 3.66555387243169 | etot = 19.5375036009043
7000  ekin = 15.9004071643098 | epot = 3.63709622556751 | etot = 19.5375033898773
7100  ekin = 15.8652957833459 | epot = 3.67220743414613 | etot = 19.537503217492
7200  ekin = 15.7466213203349 | epot = 3.79088180528038 | etot = 19.5375031256153
7300  ekin = 15.54114654648 | epot = 3.99635665565667 | etot = 19.5375032021366
7400  ekin = 15.2669711805433 | epot = 4.27053223988295 | etot = 19.5375034204263
7500  ekin = 14.9636579656239 | epot = 4.57384580337868 | etot = 19.5375037690025
7600  ekin = 14.6787358327525 | epot = 4.85876803138239 | etot = 19.5375038641349
7700  ekin = 14.4379955397325 | epot = 5.09950841962449 | etot = 19.5375039593569
7800  ekin = 14.2622071391447 | epot = 5.27529692125003 | etot = 19.5375040603947
7900  ekin = 14.1672667579961 | epot = 5.37023728620903 | etot = 19.5375040442051
8000  ekin = 14.1522895679777 | epot = 5.38521441926605 | etot = 19.5375039872437
8100  ekin = 14.2023991157311 | epot = 5.33510469482856 | etot = 19.5375038105597
8200  ekin = 14.2934779152889 | epot = 5.24402573652887 | etot = 19.5375036518178
8300  ekin = 14.4025131316429 | epot = 5.13499038407774 | etot = 19.5375035157206
8400  ekin = 14.5113682073601 | epot = 5.02613517414581 | etot = 19.5375033815059
8500  ekin = 14.6041226160479 | epot = 4.93338074882776 | etot = 19.5375033648757
8600  ekin = 14.6770366346476 | epot = 4.86046678321939 | etot = 19.537503417867
8700  ekin = 14.7315522219725 | epot = 4.80595117460597 | etot = 19.5375033965784
8800  ekin = 14.7658975087743 | epot = 4.77160597812533 | etot = 19.5375034868996
8900  ekin = 14.7867783173365 | epot = 4.75072526495698 | etot = 19.5375035822935
9000  ekin = 14.7994211964315 | epot = 4.73808233971858 | etot = 19.53750353615
9100  ekin = 14.800177770125 | epot = 4.73732563998408 | etot = 19.537503410109
9200  ekin = 14.7836348928202 | epot = 4.75386855581498 | etot = 19.5375034486351
9300  ekin = 14.7489615189488 | epot = 4.7885417482593 | etot = 19.5375032672081
9400  ekin = 14.6893516042741 | epot = 4.84815170745001 | etot = 19.5375033117241
9500  ekin = 14.6039714591457 | epot = 4.93353186276297 | etot = 19.5375033219087
9600  ekin = 14.4917960485786 | epot = 5.04570730179813 | etot = 19.5375033503767
9700  ekin = 14.353549356207 | epot = 5.18395407771829 | etot = 19.5375034339253
9800  ekin = 14.2013797135315 | epot = 5.33612380931128 | etot = 19.5375035228428
9900  ekin = 14.0521564607804 | epot = 5.4853471649526 | etot = 19.537503625733
10000  ekin = 13.9218004852941 | epot = 5.61570332412673 | etot = 19.5375038094208
10100  ekin = 13.8306650205389 | epot = 5.70683887860735 | etot = 19.5375038991463
10200  ekin = 13.7925175278921 | epot = 5.74498637091062 | etot = 19.5375038988027
10300  ekin = 13.808963324307 | epot = 5.72854051876877 | etot = 19.5375038430758
10400  ekin = 13.8732455394494 | epot = 5.6642581686839 | etot = 19.5375037081333
10500  ekin = 13.9679237386773 | epot = 5.56957987032994 | etot = 19.5375036090072
10600  ekin = 14.0737856743828 | epot = 5.46371778461643 | etot = 19.5375034589992
10700  ekin = 14.172810469588 | epot = 5.36469284714694 | etot = 19.537503316735
10800  ekin = 14.2483314963314 | epot = 5.2891717762455 | etot = 19.5375032725769
10900  ekin = 14.2876119457316 | epot = 5.24989134322932 | etot = 19.5375032889609
11000  ekin = 14.2949831246088 | epot = 5.24252022307262 | etot = 19.5375033476814
11100  ekin = 14.2852828086121 | epot = 5.25222060898378 | etot = 19.5375034175958
11200  ekin = 14.2675787405833 | epot = 5.26992475471078 | etot = 19.537503495294
11300  ekin = 14.2462990207237 | epot = 5.29120436533007 | etot = 19.5375033860538
11400  ekin = 14.2106986484917 | epot = 5.32680459759136 | etot = 19.537503246083
11500  ekin = 14.1387985527089 | epot = 5.39870457486314 | etot = 19.537503127572
11600  ekin = 14.0125359617259 | epot = 5.52496719632528 | etot = 19.5375031580512
11700  ekin = 13.8363434736844 | epot = 5.70115976453419 | etot = 19.5375032382186
11800  ekin = 13.6267641322015 | epot = 5.91073924715299 | etot = 19.5375033793545
11900  ekin = 13.4086602330018 | epot = 6.12884335890662 | etot = 19.5375035919084
12000  ekin = 13.2171500586161 | epot = 6.32035377007188 | etot = 19.537503828688
12100  ekin = 13.087859161688 | epot = 6.4496448563866 | etot = 19.5375040180746
12200  ekin = 13.048726428168 | epot = 6.48877768345925 | etot = 19.5375041116273
12300  ekin = 13.1195107725037 | epot = 6.41799335882959 | etot = 19.5375041313333
12400  ekin = 13.300581134538 | epot = 6.23692284008415 | etot = 19.5375039746222
12500  ekin = 13.5632638360386 | epot = 5.9742398238856 | etot = 19.5375036599242
12600  ekin = 13.8634565902445 | epot = 5.67404660266952 | etot = 19.537503192914
12700  ekin = 14.1392553726854 | epot = 5.39824753545446 | etot = 19.5375029081399
12800  ekin = 14.3393634013255 | epot = 5.1981393382038 | etot = 19.5375027395293
12900  ekin = 14.4376715326708 | epot = 5.09983115619297 | etot = 19.5375026888637
13000  ekin = 14.4319999950683 | epot = 5.10550277859876 | etot = 19.5375027736671
13100  ekin = 14.3326220490971 | epot = 5.20488091045001 | etot = 19.5375029595471
13200  ekin = 14.163970855718 | epot = 5.37353233209064 | etot = 19.5375031878086
13300  ekin = 13.9621105052053 | epot = 5.57539293262178 | etot = 19.5375034378271
13400  ekin = 13.7718786006291 | epot = 5.76562510830443 | etot = 19.5375037089335
13500  ekin = 13.6232450518999 | epot = 5.91425871548983 | etot = 19.5375037673898
13600  ekin = 13.5120306125604 | epot = 6.02547311391907 | etot = 19.5375037264794
13700  ekin = 13.4233606125456 | epot = 6.1141427708859 | etot = 19.5375033834315
13800  ekin = 13.3189783341472 | epot = 6.21852478369479 | etot = 19.537503117842
13900  ekin = 13.1628500572432 | epot = 6.37465297867945 | etot = 19.5375030359226
14000  ekin = 12.9455179362111 | epot = 6.5919851098353 | etot = 19.5375030460464
14100  ekin = 12.6786526005269 | epot = 6.85885062015741 | etot = 19.5375032206844
14200  ekin = 12.3917917525 | epot = 7.14571175917439 | etot = 19.5375035116744
14300  ekin = 12.1331319870928 | epot = 7.40437180022898 | etot = 19.5375037873218
14400  ekin = 11.9532899925909 | epot = 7.58421411361551 | etot = 19.5375041062064
14500  ekin = 11.899412036427 | epot = 7.63809230046369 | etot = 19.5375043368907
14600  ekin = 12.0061316650527 | epot = 7.53137277209741 | etot = 19.5375044371501
14700  ekin = 12.2839727314082 | epot = 7.25353130049347 | etot = 19.5375040319017
14800  ekin = 12.688313958925 | epot = 6.84918970071974 | etot = 19.5375036596448
14900  ekin = 13.1528219281769 | epot = 6.38468123279298 | etot = 19.5375031609699
15000  ekin = 13.6055887174521 | epot = 5.93191405883434 | etot = 19.5375027762864
15100  ekin = 13.9811156539692 | epot = 5.5563868889059 | etot = 19.5375025428751
15200  ekin = 14.2347373944265 | epot = 5.30276512927748 | etot = 19.537502523704
15300  ekin = 14.353735777148 | epot = 5.18376685888062 | etot = 19.5375026360286
15400  ekin = 14.3545796537005 | epot = 5.18292314820602 | etot = 19.5375028019065
15500  ekin = 14.2723119510407 | epot = 5.2651911396009 | etot = 19.5375030906416
15600  ekin = 14.146111797274 | epot = 5.39139155648005 | etot = 19.5375033537541
15700  ekin = 14.0205256971615 | epot = 5.51697786952873 | etot = 19.5375035666902
15800  ekin = 13.9318490968107 | epot = 5.60565456919434 | etot = 19.537503666005
15900  ekin = 13.8966697973863 | epot = 5.64083392457889 | etot = 19.5375037219652
16000  ekin = 13.9179863664823 | epot = 5.61951731129029 | etot = 19.5375036777726
16100  ekin = 13.984447696386 | epot = 5.55305579894148 | etot = 19.5375034953275
16200  ekin = 14.0714912661774 | epot = 5.46601206255022 | etot = 19.5375033287277
16300  ekin = 14.1561388795443 | epot = 5.38136434170072 | etot = 19.537503221245
16400  ekin = 14.2244313232975 | epot = 5.31307186835936 | etot = 19.5375031916569
16500  ekin = 14.2710473429152 | epot = 5.26645582994071 | etot = 19.5375031728559
16600  ekin = 14.2899471533986 | epot = 5.24755597060811 | etot = 19.5375031240067
16700  ekin = 14.2782040911578 | epot = 5.25929905720614 | etot = 19.5375031483639
16800  ekin = 14.2347481555038 | epot = 5.30275507874724 | etot = 19.5375032342511
16900  ekin = 14.158508422432 | epot = 5.3789947200986 | etot = 19.5375031425306
17000  ekin = 14.0490078115338 | epot = 5.48849533118803 | etot = 19.5375031427219
17100  ekin = 13.9085542196194 | epot = 5.62894906759188 | etot = 19.5375032872112
17200  ekin = 13.7560546832061 | epot = 5.78144872196972 | etot = 19.5375034051758
17300  ekin = 13.6034878086535 | epot = 5.93401564766296 | etot = 19.5375034563165
17400  ekin = 13.4572827621921 | epot = 6.08022072146304 | etot = 19.5375034836552
17500  ekin = 13.3226240386898 | epot = 6.21487948304968 | etot = 19.5375035217395
17600  ekin = 13.2056460568046 | epot = 6.33185752527487 | etot = 19.5375035820795
17700  ekin = 13.1090728671903 | epot = 6.42843062467515 | etot = 19.5375034918654
17800  ekin = 13.0278414098521 | epot = 6.50966193553871 | etot = 19.5375033453908
17900  ekin = 12.950728320157 | epot = 6.5867749847948 | etot = 19.5375033049518
18000  ekin = 12.8746296879938 | epot = 6.6628736438866 | etot = 19.5375033318804
18100  ekin = 12.8074480735225 | epot = 6.73005534533592 | etot = 19.5375034188584
18200  ekin = 12.7616134529411 | epot = 6.77589002178169 | etot = 19.5375034747228
18300  ekin = 12.7487977380454 | epot = 6.78870579964975 | etot = 19.5375035376951
18400  ekin = 12.7793539143835 | epot = 6.75814957143015 | etot = 19.5375034858137
18500  ekin = 12.8491991677793 | epot = 6.68830417256665 | etot = 19.5375033403459
18600  ekin = 12.9364584639673 | epot = 6.60104448737247 | etot = 19.5375029513398
18700  ekin = 13.0017156282895 | epot = 6.53578715371369 | etot = 19.5375027820031
18800  ekin = 13.0167641952279 | epot = 6.52073857463179 | etot = 19.5375027698597
18900  ekin = 12.9754155298008 | epot = 6.56208733651447 | etot = 19.5375028663152
19000  ekin = 12.8907274810697 | epot = 6.64677550779322 | etot = 19.5375029888629
19100  ekin = 12.7866415753862 | epot = 6.75086159353734 | etot = 19.5375031689235
19200  ekin = 12.6925544167085 | epot = 6.84494902182867 | etot = 19.5375034385372
19300  ekin = 12.6497566837292 | epot = 6.88774702343799 | etot = 19.5375037071672
19400  ekin = 12.6948146249813 | epot = 6.84268912565728 | etot = 19.5375037506386
19500  ekin = 12.8404138710942 | epot = 6.69708987474724 | etot = 19.5375037458415
19600  ekin = 13.086017543642 | epot = 6.45148609192125 | etot = 19.5375036355632
19700  ekin = 13.4162111706464 | epot = 6.12129234949484 | etot = 19.5375035201412
19800  ekin = 13.8027762172362 | epot = 5.73472704881264 | etot = 19.5375032660488
19900  ekin = 14.2094400811268 | epot = 5.32806299206933 | etot = 19.5375030731961
20000  ekin = 14.5927988803456 | epot = 4.94470373094074 | etot = 19.5375026112863
     20000   0.098268006    0.049447037    0              0.19537503     0.80784306   
Loop time of 13.9841 on 2 procs for 20000 steps with 100 atoms

Performance: 12356.884 tau/day, 1430.195 timesteps/s, 143.019 katom-step/s
100.0% CPU use with 1 MPI tasks x 2 OpenMP threads

MPI task timing breakdown:
Section |  min time  |  avg time  |  max time  |%varavg| %total
---------------------------------------------------------------
Pair    | 1.8104     | 1.8104     | 1.8104     |   0.0 | 12.95
Neigh   | 0.0027906  | 0.0027906  | 0.0027906  |   0.0 |  0.02
Comm    | 6.5929     | 6.5929     | 6.5929     |   0.0 | 47.15
Output  | 0.00079756 | 0.00079756 | 0.00079756 |   0.0 |  0.01
Modify  | 5.0962     | 5.0962     | 5.0962     |   0.0 | 36.44
Other   |            | 0.4811     |            |       |  3.44

Nlocal:            100 ave         100 max         100 min
Histogram: 1 0 0 0 0 0 0 0 0 0
Nghost:           3694 ave        3694 max        3694 min
Histogram: 1 0 0 0 0 0 0 0 0 0
Neighs:              0 ave           0 max           0 min
Histogram: 1 0 0 0 0 0 0 0 0 0
FullNghs:          976 ave         976 max         976 min
Histogram: 1 0 0 0 0 0 0 0 0 0

Total # of neighbors = 976
Ave neighs/atom = 9.76
Neighbor list builds = 11
Dangerous builds = 0

write_data data_out.* nocoeff
System init for write_data ...
Generated 0 of 0 mixed pair_coeff terms from geometric mixing rule
Total wall time: 0:00:14
