LAMMPS (4 Feb 2025 - Development - patch_4Feb2025-311-ga630dff073-modified)
KOKKOS mode with Kokkos version 4.5.1 is enabled (src/KOKKOS/kokkos.cpp:72)
  will use up to 1 GPU(s) per node
  using 2 OpenMP thread(s) per MPI task
package kokkos
package kokkos neigh half
###
# Box and units  (use LJ units and periodic boundaries)
###

units           lj
atom_style      ellipsoid
dimension	3
boundary	p p p

lattice		sc 0.75
Lattice spacing in x,y,z = 1.1006424 1.1006424 1.1006424
region		box block 0 64 0 64 0 64
create_box	1 box
Created orthogonal box = (0 0 0) to (70.441115 70.441115 70.441115)
  1 by 1 by 1 MPI processor grid
create_atoms	1 box
Created 262144 atoms
  using lattice units in orthogonal box = (0 0 0) to (70.441115 70.441115 70.441115)
  create_atoms CPU = 0.044 seconds

group           all type 1
262144 atoms in group all
set             type 1 mass 1.0
Setting atom values ...
  262144 settings made for mass
set             type 1 shape 0.6 0.6 0.6
Setting atom values ...
  262144 settings made for shape
set             type 1 quat/random 29898
Setting atom values ...
  262144 settings made for quat/random
group		subA id 1:10000
10000 atoms in group subA
group		subB id 10001:100000
90000 atoms in group subB
group           subC id 100001:200000
100000 atoms in group subC

#velocity 	all create 0.1 87287 loop geom rot yes # 'rot yes' zeros angmom
set group	subA vx 0.01 vy 0.0 vz 0.0
Setting atom values ...
  10000 settings made for vx
  10000 settings made for vy
  10000 settings made for vz
set group	subB vx -0.03 vy 0.02 vz 0.0
Setting atom values ...
  90000 settings made for vx
  90000 settings made for vy
  90000 settings made for vz
set group	subC vx 0.01 vy 0.01 vz 0.1
Setting atom values ...
  100000 settings made for vx
  100000 settings made for vy
  100000 settings made for vz
set group 	all angmom 0.0 0.0 0.0
Setting atom values ...
  262144 settings made for angmom

neighbor        0.3 bin
neigh_modify    delay 0 every 100 check yes

###################################################################
# Pair interaction between non-bonded atoms
#
#  Lennard-Jones 12-6 potential with cutoff:
#  potential E=4epsilon[ (sigma/r)^12 - (sigma/r)^6]  for r<r_cut
#
#  1.12246152962189 = 2^(1/6) is the minimum of the potential

pair_style      lj/cut 1.12246152962189

#
#  pair_coeff for lj/cut, specify 4:
#    * atom type interacting with
#    * atom type
#    * epsilon (energy units)
#    * sigma (distance units)
#

pair_coeff      1 1 1.0 1.12246152962189

#
#  pair_modify shift yes adds a constant to the potential such
#  that E(r_cut)=0. Forces remains unchanged.
#

pair_modify     shift yes

###################################################
reset_atoms 	id sort yes
Resetting atom IDs ...
Generated 0 of 0 mixed pair_coeff terms from geometric mixing rule
Neighbor list info ...
  update: every = 100 steps, delay = 0 steps, check = yes
  max neighbors/atom: 2000, page size: 100000
  master list distance cutoff = 1.4224615
  ghost atom cutoff = 1.4224615
  binsize = 1.4224615, bins = 50 50 50
  1 neighbor lists, perpetual/occasional/extra = 1 0 0
  (1) pair lj/cut/kk, perpetual
      attributes: half, newton off, kokkos_device
      pair build: half/bin/newtoff/kk/device
      stencil: full/bin/3d
      bin: kk/device

comm_modify cutoff 6
#comm_style tiled
#balance 1.2 rcb

###
# Set up fixes
###

fix 1 all   nve/asphere   ###NVE ensemble
#fix 2 all   langevin   1.0 1.0   2.0   424242   ###Langevin integrator Tstart Tstop 1/friction rndseed

compute ekin all ke
compute epot all pe
variable ekin equal c_ekin
variable epot equal c_epot
variable etot equal c_ekin+c_epot

fix 3 all print 5000 "$(step)  ekin = ${ekin} | epot = ${epot} | etot = ${etot}" screen yes

compute q all property/atom quatw quati quatj quatk
compute diameter all property/atom shapex shapey shapez
dump 1 all custom 5000 dump.polymer id type x y z c_q[1] c_q[2] c_q[3] c_q[4] c_diameter[1] c_diameter[2] c_diameter[3]
dump_modify 1 colname c_q[1] quatw colname c_q[2] quati colname c_q[3] quatj colname c_q[4] quatk

###################################################

timestep 0.00001 #0.012

run 100000
Generated 0 of 0 mixed pair_coeff terms from geometric mixing rule
0  ekin = 569.000000001008 | epot = 442355.735002327 | etot = 442924.735002328
Per MPI rank memory allocation (min/avg/max) = 155.1 | 155.1 | 155.1 Mbytes
   Step          Temp          E_pair         E_mol          TotEng         Press     
         0   0.0014470473   1.6874532      0              1.6896238      25.313389    
5000  ekin = 545.078192070029 | epot = 442379.656810595 | etot = 442924.735002665
10000  ekin = 525.980656251991 | epot = 442398.75434635 | etot = 442924.735002602
15000  ekin = 509.691908739333 | epot = 442415.0430938 | etot = 442924.735002539
20000  ekin = 497.909137998224 | epot = 442426.825864632 | etot = 442924.73500263
25000  ekin = 505.302510921095 | epot = 442419.432491803 | etot = 442924.735002724
30000  ekin = 563.105426159565 | epot = 442361.629576703 | etot = 442924.735002863
35000  ekin = 755.944441267693 | epot = 442168.790562185 | etot = 442924.735003452
40000  ekin = 1340.39163270529 | epot = 441584.343372451 | etot = 442924.735005156
45000  ekin = 3038.61006114173 | epot = 439886.124553179 | etot = 442924.734614321
50000  ekin = 7158.66307380892 | epot = 435766.058964619 | etot = 442924.722038428
55000  ekin = 15368.7270774733 | epot = 427555.9751983 | etot = 442924.702275773
60000  ekin = 29577.8531285364 | epot = 413346.728334327 | etot = 442924.581462864
65000  ekin = 47120.9365002078 | epot = 395803.566870065 | etot = 442924.503370273
70000  ekin = 67556.0706752216 | epot = 375368.541349163 | etot = 442924.612024384
75000  ekin = 92018.9539855519 | epot = 350905.893451213 | etot = 442924.847436765
80000  ekin = 116168.800788747 | epot = 326755.887346296 | etot = 442924.688135043
85000  ekin = 137785.855626258 | epot = 305139.061657526 | etot = 442924.917283784
90000  ekin = 157093.181864811 | epot = 285831.586064295 | etot = 442924.767929105
95000  ekin = 171638.858686627 | epot = 271285.84865773 | etot = 442924.707344357
100000  ekin = 175896.92193573 | epot = 267027.947969084 | etot = 442924.869904814
    100000   0.44733071     1.0186308      0              1.6896243      16.56        
Loop time of 113.221 on 2 procs for 100000 steps with 262144 atoms

Performance: 763.106 tau/day, 883.225 timesteps/s, 231.532 Matom-step/s
99.7% CPU use with 1 MPI tasks x 2 OpenMP threads

MPI task timing breakdown:
Section |  min time  |  avg time  |  max time  |%varavg| %total
---------------------------------------------------------------
Pair    | 60.439     | 60.439     | 60.439     |   0.0 | 53.38
Neigh   | 0.058789   | 0.058789   | 0.058789   |   0.0 |  0.05
Comm    | 0.35921    | 0.35921    | 0.35921    |   0.0 |  0.32
Output  | 8.4795     | 8.4795     | 8.4795     |   0.0 |  7.49
Modify  | 42.704     | 42.704     | 42.704     |   0.0 | 37.72
Other   |            | 1.181      |            |       |  1.04

Nlocal:         262144 ave      262144 max      262144 min
Histogram: 1 0 0 0 0 0 0 0 0 0
Nghost:         159705 ave      159705 max      159705 min
Histogram: 1 0 0 0 0 0 0 0 0 0
Neighs:         988448 ave      988448 max      988448 min
Histogram: 1 0 0 0 0 0 0 0 0 0

Total # of neighbors = 988448
Ave neighs/atom = 3.7706299
Neighbor list builds = 11
Dangerous builds = 0

write_data data_out.* nocoeff
System init for write_data ...
Generated 0 of 0 mixed pair_coeff terms from geometric mixing rule
Total wall time: 0:01:55
