LAMMPS (4 Feb 2025 - Development - patch_4Feb2025-311-ga630dff073-modified)
OMP_NUM_THREADS environment is not set. Defaulting to 1 thread. (src/comm.cpp:99)
  using 1 OpenMP thread(s) per MPI task
###
# Box and units  (use LJ units and periodic boundaries)
###

units           lj
atom_style      ellipsoid
dimension	3
boundary	p p p

lattice		sc 0.75
Lattice spacing in x,y,z = 1.1006424 1.1006424 1.1006424
region		box block 0 64 0 64 0 64
create_box	1 box
Created orthogonal box = (0 0 0) to (70.441115 70.441115 70.441115)
  2 by 2 by 2 MPI processor grid
create_atoms	1 box
Created 262144 atoms
  using lattice units in orthogonal box = (0 0 0) to (70.441115 70.441115 70.441115)
  create_atoms CPU = 0.004 seconds

group           all type 1
262144 atoms in group all
set             type 1 mass 1.0
Setting atom values ...
  262144 settings made for mass
set             type 1 shape 0.6 0.6 0.6
Setting atom values ...
  262144 settings made for shape
set             type 1 quat/random 29898
Setting atom values ...
  262144 settings made for quat/random
group		subA id 1:10000
10000 atoms in group subA
group		subB id 10001:100000
90000 atoms in group subB
group           subC id 100001:200000
100000 atoms in group subC

#velocity 	all create 0.1 87287 loop geom rot yes # 'rot yes' zeros angmom
set group	subA vx 0.01 vy 0.0 vz 0.0
Setting atom values ...
  10000 settings made for vx
  10000 settings made for vy
  10000 settings made for vz
set group	subB vx -0.03 vy 0.02 vz 0.0
Setting atom values ...
  90000 settings made for vx
  90000 settings made for vy
  90000 settings made for vz
set group	subC vx 0.01 vy 0.01 vz 0.1
Setting atom values ...
  100000 settings made for vx
  100000 settings made for vy
  100000 settings made for vz
set group 	all angmom 0.0 0.0 0.0
Setting atom values ...
  262144 settings made for angmom

neighbor        0.3 bin
neigh_modify    delay 0 every 100 check yes

###################################################################
# Pair interaction between non-bonded atoms
#
#  Lennard-Jones 12-6 potential with cutoff:
#  potential E=4epsilon[ (sigma/r)^12 - (sigma/r)^6]  for r<r_cut
#
#  1.12246152962189 = 2^(1/6) is the minimum of the potential

pair_style      lj/cut 1.12246152962189

#
#  pair_coeff for lj/cut, specify 4:
#    * atom type interacting with
#    * atom type
#    * epsilon (energy units)
#    * sigma (distance units)
#

pair_coeff      1 1 1.0 1.12246152962189

#
#  pair_modify shift yes adds a constant to the potential such
#  that E(r_cut)=0. Forces remains unchanged.
#

pair_modify     shift yes

###################################################
reset_atoms 	id sort yes
Resetting atom IDs ...
Generated 0 of 0 mixed pair_coeff terms from geometric mixing rule
Neighbor list info ...
  update: every = 100 steps, delay = 0 steps, check = yes
  max neighbors/atom: 2000, page size: 100000
  master list distance cutoff = 1.4224615
  ghost atom cutoff = 1.4224615
  binsize = 0.71123076, bins = 100 100 100
  1 neighbor lists, perpetual/occasional/extra = 1 0 0
  (1) pair lj/cut, perpetual
      attributes: half, newton on
      pair build: half/bin/atomonly/newton
      stencil: half/bin/3d
      bin: standard

comm_modify cutoff 6
#comm_style tiled
#balance 1.2 rcb

###
# Set up fixes
###

fix 1 all   nve   ###NVE ensemble
#fix 2 all   langevin   1.0 1.0   2.0   424242   ###Langevin integrator Tstart Tstop 1/friction rndseed

compute ekin all ke
compute epot all pe
variable ekin equal c_ekin
variable epot equal c_epot
variable etot equal c_ekin+c_epot

fix 3 all print 5000 "$(step)  ekin = ${ekin} | epot = ${epot} | etot = ${etot}" screen yes

compute q all property/atom quatw quati quatj quatk
compute diameter all property/atom shapex shapey shapez
dump 1 all custom 5000 dump.polymer id type x y z c_q[1] c_q[2] c_q[3] c_q[4] c_diameter[1] c_diameter[2] c_diameter[3]
dump_modify 1 colname c_q[1] quatw colname c_q[2] quati colname c_q[3] quatj colname c_q[4] quatk

###################################################

timestep 0.00001 #0.012

run 100000
Generated 0 of 0 mixed pair_coeff terms from geometric mixing rule
0  ekin = 568.999999999912 | epot = 442355.735001906 | etot = 442924.735001905
Per MPI rank memory allocation (min/avg/max) = 29.97 | 29.97 | 29.97 Mbytes
   Step          Temp          E_pair         E_mol          TotEng         Press     
         0   0.0014470473   1.6874532      0              1.6896238      25.313389    
5000  ekin = 558.968096619368 | epot = 442365.766905692 | etot = 442924.735002311
10000  ekin = 565.369950487243 | epot = 442359.365051867 | etot = 442924.735002354
15000  ekin = 598.708082140121 | epot = 442326.026920281 | etot = 442924.735002422
20000  ekin = 684.254695621187 | epot = 442240.480307097 | etot = 442924.735002718
25000  ekin = 909.129445537984 | epot = 442015.605557725 | etot = 442924.735003263
30000  ekin = 1502.71732777217 | epot = 441422.017676914 | etot = 442924.735004686
35000  ekin = 3082.92442799436 | epot = 439841.810580397 | etot = 442924.735008391
40000  ekin = 7193.47421337503 | epot = 435731.260806325 | etot = 442924.7350197
45000  ekin = 16581.8742019767 | epot = 426342.861547438 | etot = 442924.735749415
50000  ekin = 33945.8244052448 | epot = 408978.861444146 | etot = 442924.685849391
55000  ekin = 55896.8437162163 | epot = 387027.881665381 | etot = 442924.725381598
60000  ekin = 73268.421340256 | epot = 369656.244219668 | etot = 442924.665559924
65000  ekin = 100420.195209185 | epot = 342504.301103679 | etot = 442924.496312864
70000  ekin = 132036.782831404 | epot = 310887.89534986 | etot = 442924.678181263
75000  ekin = 143255.7821913 | epot = 299668.877549811 | etot = 442924.659741111
80000  ekin = 178387.542694243 | epot = 264537.090558526 | etot = 442924.633252769
85000  ekin = 208374.225722221 | epot = 234550.64969757 | etot = 442924.875419791
90000  ekin = 229660.514451129 | epot = 213264.298710342 | etot = 442924.813161471
95000  ekin = 257557.199605554 | epot = 185367.4520663 | etot = 442924.651671854
100000  ekin = 273313.792272446 | epot = 169610.49256813 | etot = 442924.284840577
    100000   0.69507557     0.64701268     0              1.6896221      11.737766    
Loop time of 416.445 on 8 procs for 100000 steps with 262144 atoms

Performance: 207.470 tau/day, 240.128 timesteps/s, 62.948 Matom-step/s
90.5% CPU use with 8 MPI tasks x 1 OpenMP threads

MPI task timing breakdown:
Section |  min time  |  avg time  |  max time  |%varavg| %total
---------------------------------------------------------------
Pair    | 78.114     | 80.138     | 83.392     |  17.7 | 19.24
Neigh   | 0.10775    | 0.11102    | 0.1156     |   1.0 |  0.03
Comm    | 221.31     | 226.46     | 230.23     |  17.1 | 54.38
Output  | 1.1753     | 1.2936     | 1.4106     |   6.8 |  0.31
Modify  | 19.494     | 20.57      | 21.95      |  15.3 |  4.94
Other   |            | 87.87      |            |       | 21.10

Nlocal:          32768 ave       33361 max       32299 min
Histogram: 2 0 1 2 0 0 1 1 0 1
Nghost:        46890.9 ave       47429 max       46239 min
Histogram: 1 0 1 1 0 1 2 0 1 1
Neighs:         129862 ave      140061 max      122267 min
Histogram: 2 0 0 1 3 0 0 1 0 1

Total # of neighbors = 1038897
Ave neighs/atom = 3.9630775
Neighbor list builds = 17
Dangerous builds = 0

write_data data_out.* nocoeff
System init for write_data ...
Generated 0 of 0 mixed pair_coeff terms from geometric mixing rule
Total wall time: 0:06:57
