LAMMPS (11 Feb 2026 - Development - patch_11Feb2026-572-g454fdc4ab0-modified)
