LAMMPS data file via write_data, version 27 Jun 2024, timestep = 10000, units = lj

2 atoms
1 atom types

-2 2 xlo xhi
-2 2 ylo yhi
-4 4 zlo zhi

Masses

1 1

Atoms # atomic

1 1 0 0 -3.0000000000010436 0 0 13
2 1 0 0 2.9999999999990004 0 0 12

Velocities

1 0 0 10
2 0 0 10
