LAMMPS (29 Aug 2024 - Development - patch_27Jun2024-1409-g987318c207-modified)
KOKKOS mode with Kokkos version 4.3.1 is enabled (../kokkos.cpp:72)
  will use up to 1 GPU(s) per node
  using 2 OpenMP thread(s) per MPI task
package kokkos
package kokkos comm no
variable number	equal 2
variable ofreq	equal 1000
variable efreq	equal 1000
variable T      equal 0.1

units lj

dimension 3

newton on

boundary  p p p

atom_style hybrid/kk bond/kk ellipsoid/kk
WARNING: Atom style hybrid defines both, per-type and per-atom masses; both must be set, but only per-atom masses will be used (../atom_vec_hybrid.cpp:132)
atom_modify sort 0 1.0

# Pair interactions require lists of neighbours to be calculated
neighbor 2.0 bin
neigh_modify every 1 delay 0 check yes

read_data data.duplex2
Reading data file ...
  orthogonal box = (-20 -20 -20) to (20 20 20)
  1 by 1 by 1 MPI processor grid
  reading atoms ...
  16 atoms
  reading velocities ...
  16 velocities
  scanning bonds ...
  1 = max bonds/atom
  16 ellipsoids
  orthogonal box = (-20 -20 -20) to (20 20 20)
  1 by 1 by 1 MPI processor grid
  reading bonds ...
  13 bonds
Finding 1-2 1-3 1-4 neighbors ...
  special bond factors lj:    0        0        0       
  special bond factors coul:  0        0        0       
     2 = max # of 1-2 neighbors
     2 = max # of 1-3 neighbors
     4 = max # of 1-4 neighbors
     6 = max # of special neighbors
  special bonds CPU = 0.003 seconds
  read_data CPU = 0.020 seconds

set atom * mass 3.1575
Setting atom values ...
  16 settings made for mass

group all type 1 4
16 atoms in group all

# oxDNA bond interactions - FENE backbone
bond_style oxdna/fene/kk
bond_coeff * 2.0 0.75 1.07525
special_bonds lj 0 1 1
Finding 1-2 1-3 1-4 neighbors ...
  special bond factors lj:    0        1        1       
  special bond factors coul:  0        0        0       
     2 = max # of 1-2 neighbors
     2 = max # of 1-3 neighbors
     4 = max # of 1-4 neighbors
     6 = max # of special neighbors
  special bonds CPU = 0.003 seconds

# oxDNA pair interactions
pair_style oxdna/excv/kk
pair_coeff * * 2.0 0.7 0.675 2.0 0.515 0.5 2.0 0.33 0.32

# NVE ensemble
fix 1 all nve/asphere
#fix 2 all langevin ${T} ${T} 2.5 457145 angmom 10

timestep 1e-5

#comm_style tiled
fix 3 all balance 1000 1.03 shift xyz 10 1.03
comm_modify cutoff 3.8

compute quat all property/atom quatw quati quatj quatk

compute erot all erotate/asphere
compute ekin all ke
compute epot all pe
variable erot equal c_erot
variable ekin equal c_ekin
variable epot equal c_epot
variable etot equal c_erot+c_ekin+c_epot
fix 5 all print ${efreq} "$(step)  ekin = ${ekin} |  erot = ${erot} | epot = ${epot} | etot = ${etot}" screen yes
fix 5 all print 1000 "$(step)  ekin = ${ekin} |  erot = ${erot} | epot = ${epot} | etot = ${etot}" screen yes

dump out all custom ${ofreq} out.${number}.lammpstrj id mol type x y z ix iy iz vx vy vz c_quat[1] c_quat[2] c_quat[3] c_quat[4] angmomx angmomy angmomz
dump out all custom 1000 out.${number}.lammpstrj id mol type x y z ix iy iz vx vy vz c_quat[1] c_quat[2] c_quat[3] c_quat[4] angmomx angmomy angmomz
dump out all custom 1000 out.2.lammpstrj id mol type x y z ix iy iz vx vy vz c_quat[1] c_quat[2] c_quat[3] c_quat[4] angmomx angmomy angmomz
dump_modify out sort id
dump_modify out format line "%d %d %d  %22.15le %22.15le %22.15le  %d %d %d  %22.15le %22.15le %22.15le  %22.15le %22.15le %22.15le %22.15le  %22.15le %22.15le %22.15le"

run_style verlet/kk
run 1000000

CITE-CITE-CITE-CITE-CITE-CITE-CITE-CITE-CITE-CITE-CITE-CITE-CITE

Your simulation uses code contributions which should be cited:

- Type Label Framework: https://doi.org/10.1021/acs.jpcb.3c08419

@Article{Gissinger24,
 author = {Jacob R. Gissinger, Ilia Nikiforov, Yaser Afshar, Brendon Waters, Moon-ki Choi, Daniel S. Karls, Alexander Stukowski, Wonpil Im, Hendrik Heinz, Axel Kohlmeyer, and Ellad B. Tadmor},
 title = {Type Label Framework for Bonded Force Fields in LAMMPS},
 journal = {J. Phys. Chem. B},
 year =    2024,
 volume =  128,
 number =  13,
 pages =   {3282–-3297}
}

CITE-CITE-CITE-CITE-CITE-CITE-CITE-CITE-CITE-CITE-CITE-CITE-CITE

Generated 0 of 6 mixed pair_coeff terms from geometric mixing rule
Neighbor list info ...
  update: every = 1 steps, delay = 0 steps, check = yes
  max neighbors/atom: 2000, page size: 100000
  master list distance cutoff = 2.7118792
  ghost atom cutoff = 3.8
  binsize = 2.7118792, bins = 15 15 15
  1 neighbor lists, perpetual/occasional/extra = 1 0 0
  (1) pair oxdna/excv/kk, perpetual
      attributes: full, newton on, kokkos_device
      pair build: full/bin/kk/device
      stencil: full/bin/3d
      bin: kk/device
0  ekin = 2.70475393009871 |  erot = 2.80172072918779 | epot = 2.64334594915632 | etot = 8.14982060844282
Per MPI rank memory allocation (min/avg/max) = 7.76 | 7.76 | 7.76 Mbytes
   Step          Temp          E_pair         E_mol          TotEng         Press          Volume    
         0   0.12021129     0              0.16520912     0.33425624     7.8166607e-05  64000        
1000  ekin = 2.71020216990159 |  erot = 2.80552859588947 | epot = 2.63408984265145 | etot = 8.14982060844252
2000  ekin = 2.71589866322519 |  erot = 2.80906878306547 | epot = 2.62485316215182 | etot = 8.14982060844248
3000  ekin = 2.72184530135152 |  erot = 2.81233807764454 | epot = 2.61563722944667 | etot = 8.14982060844273
4000  ekin = 2.72804580430092 |  erot = 2.81533627527075 | epot = 2.60643852887162 | etot = 8.14982060844329
5000  ekin = 2.73450569687491 |  erot = 2.81806615888244 | epot = 2.5972487526868 | etot = 8.14982060844414
6000  ekin = 2.74123228350657 |  erot = 2.82053347239629 | epot = 2.58805485254246 | etot = 8.14982060844532
7000  ekin = 2.7482346215122 |  erot = 2.82274688937597 | epot = 2.57883909755855 | etot = 8.14982060844673
8000  ekin = 2.75552349214287 |  erot = 2.82471797626449 | epot = 2.56957914004112 | etot = 8.14982060844847
9000  ekin = 2.7631113686149 |  erot = 2.82646114944125 | epot = 2.56024809039432 | etot = 8.14982060845047
10000  ekin = 2.77101238005425 |  erot = 2.82799362502699 | epot = 2.55081460337151 | etot = 8.14982060845275
11000  ekin = 2.77924227001816 |  erot = 2.82933536000409 | epot = 2.54124297843306 | etot = 8.14982060845531
12000  ekin = 2.78781834796361 |  erot = 2.83050898285132 | epot = 2.53149327764317 | etot = 8.14982060845811
13000  ekin = 2.79675943172218 |  erot = 2.83153971151958 | epot = 2.52152146521941 | etot = 8.14982060846117
14000  ekin = 2.80608577872601 |  erot = 2.83245525621288 | epot = 2.51127957352557 | etot = 8.14982060846446
15000  ekin = 2.8158190034276 |  erot = 2.83328570410674 | epot = 2.50071590093364 | etot = 8.14982060846798
16000  ekin = 2.82598197808927 |  erot = 2.83406338285915 | epot = 2.48977524752324 | etot = 8.14982060847166
17000  ekin = 2.83659871391411 |  erot = 2.83482269958062 | epot = 2.47839919498086 | etot = 8.14982060847559
18000  ekin = 2.84769421938369 |  erot = 2.83559995186407 | epot = 2.46652643723191 | etot = 8.14982060847968
19000  ekin = 2.85929433269586 |  erot = 2.83643310757603 | epot = 2.45409316821202 | etot = 8.1498206084839
20000  ekin = 2.87142552539709 |  erot = 2.83736155041706 | epot = 2.44103353267407 | etot = 8.14982060848822
21000  ekin = 2.88411467471966 |  erot = 2.83842578881398 | epot = 2.42728014495897 | etot = 8.14982060849261
22000  ekin = 2.89738880279401 |  erot = 2.83966712653955 | epot = 2.41276467916346 | etot = 8.14982060849702
23000  ekin = 2.91127478183854 |  erot = 2.84112729459075 | epot = 2.39741853207213 | etot = 8.14982060850142
24000  ekin = 2.92579900563749 |  erot = 2.84284804529395 | epot = 2.38117355757427 | etot = 8.14982060850571
25000  ekin = 2.94098702909245 |  erot = 2.84487071132449 | epot = 2.36396286809293 | etot = 8.14982060850987
26000  ekin = 2.95686317933291 |  erot = 2.84723573427635 | epot = 2.34572169490459 | etot = 8.14982060851385
27000  ekin = 2.97345014372995 |  erot = 2.84998216951251 | epot = 2.32638829527509 | etot = 8.14982060851755
28000  ekin = 2.99076854207514 |  erot = 2.85314717615047 | epot = 2.30590489029535 | etot = 8.14982060852095
29000  ekin = 3.00883649203945 |  erot = 2.85676550304718 | epot = 2.28421861343733 | etot = 8.14982060852396
30000  ekin = 3.02766917866931 |  erot = 2.86086898337852 | epot = 2.26128244647869 | etot = 8.14982060852652
31000  ekin = 3.04727843995465 |  erot = 2.86548605169025 | epot = 2.23705611688368 | etot = 8.14982060852858
32000  ekin = 3.06767238126969 |  erot = 2.87064129797184 | epot = 2.2115069292886 | etot = 8.14982060853013
33000  ekin = 3.08885503161726 |  erot = 2.87635507324129 | epot = 2.18461050367254 | etot = 8.14982060853109
34000  ekin = 3.11082605401766 |  erot = 2.88264316024922 | epot = 2.15635139426455 | etot = 8.14982060853143
35000  ekin = 3.13358052104625 |  erot = 2.88951652119659 | epot = 2.12672356628823 | etot = 8.14982060853108
36000  ekin = 3.15710876447495 |  erot = 2.89698113187135 | epot = 2.09573071218375 | etot = 8.14982060853005
37000  ekin = 3.18139630531632 |  erot = 2.90503790847379 | epot = 2.06338639473825 | etot = 8.14982060852837
38000  ekin = 3.20429165566723 |  erot = 2.91441724664403 | epot = 2.03111169353204 | etot = 8.1498205958433
39000  ekin = 3.16226713558351 |  erot = 2.9695124958929 | epot = 2.01804097668546 | etot = 8.14982060816187
40000  ekin = 3.15668193005655 |  erot = 3.03487118292582 | epot = 1.95826749107069 | etot = 8.14982060405307
41000  ekin = 3.18267783292183 |  erot = 3.046508463944 | epot = 1.92063430718327 | etot = 8.14982060404911
42000  ekin = 3.20931762876391 |  erot = 3.05862481128385 | epot = 1.88187816399693 | etot = 8.14982060404469
43000  ekin = 3.23656117395297 |  erot = 3.0711948343998 | epot = 1.84206459568709 | etot = 8.14982060403985
44000  ekin = 3.26436514647107 |  erot = 3.08418995818694 | epot = 1.80126549937665 | etot = 8.14982060403466
45000  ekin = 3.29268347975669 |  erot = 3.09757890396615 | epot = 1.75955822030634 | etot = 8.14982060402918
46000  ekin = 3.32146781015884 |  erot = 3.11132818262931 | epot = 1.71702461123538 | etot = 8.14982060402352
47000  ekin = 3.3506679255379 |  erot = 3.12540258607 | epot = 1.6737500924098 | etot = 8.1498206040177
48000  ekin = 3.38023220381292 |  erot = 3.13976566457473 | epot = 1.62982273562411 | etot = 8.14982060401176
49000  ekin = 3.41010803189422 |  erot = 3.15438017978885 | epot = 1.58533239232271 | etot = 8.14982060400579
50000  ekin = 3.44024219730493 |  erot = 3.16920852502947 | epot = 1.54036988166543 | etot = 8.14982060399983
51000  ekin = 3.47058124674373 |  erot = 3.18421310693609 | epot = 1.4950262503141 | etot = 8.14982060399392
52000  ekin = 3.50107180774856 |  erot = 3.19935668459316 | epot = 1.4493921116464 | etot = 8.14982060398812
53000  ekin = 3.53166087138981 |  erot = 3.21460266422168 | epot = 1.40355706837096 | etot = 8.14982060398245
54000  ekin = 3.53700597906112 |  erot = 3.19261243292451 | epot = 1.4202021941125 | etot = 8.14982060609813
55000  ekin = 3.53375323296755 |  erot = 3.14390663944271 | epot = 1.4721607450466 | etot = 8.14982061745686
56000  ekin = 3.59052588058676 |  erot = 3.15448696949053 | epot = 1.40480776469446 | etot = 8.14982061477175
57000  ekin = 3.68262970845655 |  erot = 3.2124665597002 | epot = 1.25472433419232 | etot = 8.14982060234906
58000  ekin = 3.72887648512434 |  erot = 3.23962384169885 | epot = 1.18132027908553 | etot = 8.14982060590872
59000  ekin = 3.75821084596424 |  erot = 3.25322406600991 | epot = 1.13838569393 | etot = 8.14982060590415
60000  ekin = 3.78744476357254 |  erot = 3.26670767573938 | epot = 1.09566816658789 | etot = 8.14982060589981
61000  ekin = 3.81653333546285 |  erot = 3.28004903288647 | epot = 1.05323823754639 | etot = 8.14982060589571
62000  ekin = 3.84543310293938 |  erot = 3.29322428882551 | epot = 1.01116321412694 | etot = 8.14982060589183
63000  ekin = 3.87410204308445 |  erot = 3.30621135619043 | epot = 0.969507206613261 | etot = 8.14982060588814
64000  ekin = 3.90249954836468 |  erot = 3.31898986768477 | epot = 0.928331189835211 | etot = 8.14982060588466
65000  ekin = 3.93058639649987 |  erot = 3.33154112474474 | epot = 0.88769308463677 | etot = 8.14982060588138
66000  ekin = 3.95832471292423 |  erot = 3.34384803862308 | epot = 0.847647854330968 | etot = 8.14982060587828
67000  ekin = 3.98567792785844 |  erot = 3.35589506610932 | epot = 0.808247611907627 | etot = 8.14982060587538
68000  ekin = 4.0126107297147 |  erot = 3.36766814176893 | epot = 0.769541734389031 | etot = 8.14982060587267
69000  ekin = 4.03908901628202 |  erot = 3.37915460827755 | epot = 0.731576981310505 | etot = 8.14982060587007
70000  ekin = 4.06507984488966 |  erot = 3.39034314614918 | epot = 0.694397614828808 | etot = 8.14982060586765
71000  ekin = 4.09055138252529 |  erot = 3.40122370391324 | epot = 0.658045519426849 | etot = 8.14982060586537
72000  ekin = 4.11547285669143 |  erot = 3.41178742958247 | epot = 0.622560319589345 | etot = 8.14982060586324
73000  ekin = 4.13981450761801 |  erot = 3.42202660407197 | epot = 0.58797949417122 | etot = 8.1498206058612
74000  ekin = 4.16354754230924 |  erot = 3.43193457707614 | epot = 0.554338486473922 | etot = 8.1498206058593
75000  ekin = 4.18664409078628 |  erot = 3.44150570578302 | epot = 0.521670809288179 | etot = 8.14982060585748
76000  ekin = 4.2090771647929 |  erot = 3.45073529670127 | epot = 0.490008144361607 | etot = 8.14982060585578
77000  ekin = 4.23082061915373 |  erot = 3.45961955079061 | epot = 0.45938043590984 | etot = 8.14982060585418
78000  ekin = 4.25184911591506 |  erot = 3.46815551201974 | epot = 0.429815977917874 | etot = 8.14982060585267
79000  ekin = 4.2721380913507 |  erot = 3.47634101942326 | epot = 0.401341495077296 | etot = 8.14982060585126
80000  ekin = 4.29166372587953 |  erot = 3.48417466268854 | epot = 0.37398221728184 | etot = 8.14982060584992
81000  ekin = 4.31040291691549 |  erot = 3.49165574127291 | epot = 0.347761947660251 | etot = 8.14982060584865
82000  ekin = 4.32833325465116 |  erot = 3.49878422702871 | epot = 0.322703124167571 | etot = 8.14982060584744
83000  ekin = 4.34543300076369 |  erot = 3.505560730297 | epot = 0.298826874785621 | etot = 8.14982060584631
84000  ekin = 4.3616810700224 |  erot = 3.51198646941861 | epot = 0.27615306640422 | etot = 8.14982060584523
85000  ekin = 4.37705701477335 |  erot = 3.51806324360257 | epot = 0.254700347468303 | etot = 8.14982060584423
86000  ekin = 4.39154101227248 |  erot = 3.52379340908564 | epot = 0.234486184485147 | etot = 8.14982060584327
87000  ekin = 4.4051138548387 |  erot = 3.52917985851227 | epot = 0.215526892491432 | etot = 8.1498206058424
88000  ekin = 4.41775694279784 |  erot = 3.53422600346029 | epot = 0.19783765958344 | etot = 8.14982060584157
89000  ekin = 4.42945228018975 |  erot = 3.53893576003475 | epot = 0.181432565616308 | etot = 8.1498206058408
90000  ekin = 4.44018247321101 |  erot = 3.5433135374488 | epot = 0.166324595180274 | etot = 8.14982060584009
91000  ekin = 4.44993073136732 |  erot = 3.54736422950752 | epot = 0.152525644964596 | etot = 8.14982060583943
92000  ekin = 4.45868087130976 |  erot = 3.55109320890644 | epot = 0.140046525622631 | etot = 8.14982060583882
93000  ekin = 4.46641732332975 |  erot = 3.55450632425263 | epot = 0.128896958255881 | etot = 8.14982060583826
94000  ekin = 4.47312514048714 |  erot = 3.5576098997109 | epot = 0.119085565639743 | etot = 8.14982060583779
95000  ekin = 4.47879001034503 |  erot = 3.56041073717245 | epot = 0.110619858319888 | etot = 8.14982060583737
96000  ekin = 4.48339826928401 |  erot = 3.56291612083715 | epot = 0.103506215715811 | etot = 8.14982060583697
97000  ekin = 4.48693691936607 |  erot = 3.56513382409379 | epot = 0.0977498623767907 | etot = 8.14982060583665
98000  ekin = 4.48939364771619 |  erot = 3.56707211857532 | epot = 0.093354839544877 | etot = 8.14982060583639
99000  ekin = 4.49075684838649 |  erot = 3.56873978525843 | epot = 0.090323972191262 | etot = 8.14982060583618
100000  ekin = 4.4910156466638 |  erot = 3.57014612746813 | epot = 0.0886588317041339 | etot = 8.14982060583606
101000  ekin = 4.49015992577713 |  erot = 3.57130098563943 | epot = 0.0883596944194521 | etot = 8.14982060583601
102000  ekin = 4.48812741385141 |  erot = 3.57205976774311 | epot = 0.0896333889163611 | etot = 8.14982057051088
103000  ekin = 4.44193617839864 |  erot = 3.41842920074173 | epot = 0.289455213449285 | etot = 8.14982059258965
104000  ekin = 4.44389875460592 |  erot = 3.13575224113879 | epot = 0.570169626318432 | etot = 8.14982062206314
105000  ekin = 4.64930084392095 |  erot = 2.97552155107292 | epot = 0.524998221307284 | etot = 8.14982061630116
106000  ekin = 4.9412975653953 |  erot = 2.97581183772139 | epot = 0.232711181241395 | etot = 8.14982058435809
107000  ekin = 5.0332232092023 |  erot = 2.99139090697523 | epot = 0.125206508498795 | etot = 8.14982062467632
108000  ekin = 5.02316890914429 |  erot = 2.98895632843975 | epot = 0.137695387093503 | etot = 8.14982062467754
109000  ekin = 5.01212830388434 |  erot = 2.98647833254942 | epot = 0.151213988245052 | etot = 8.14982062467882
110000  ekin = 5.00010618755642 |  erot = 2.98397441218063 | epot = 0.165740024943154 | etot = 8.1498206246802
111000  ekin = 4.98710824799689 |  erot = 2.98146273914316 | epot = 0.181249637541632 | etot = 8.14982062468168
112000  ekin = 4.97314109696249 |  erot = 2.97896216338287 | epot = 0.197717364337883 | etot = 8.14982062468324
113000  ekin = 4.95821230139297 |  erot = 2.97649221112243 | epot = 0.215116112169506 | etot = 8.14982062468491
114000  ekin = 4.94233041554209 |  erot = 2.97407308172307 | epot = 0.233417127421496 | etot = 8.14982062468666
115000  ekin = 4.92550501377846 |  erot = 2.97172564303258 | epot = 0.25258996787749 | etot = 8.14982062468852
116000  ekin = 4.90774672383213 |  erot = 2.96947142496664 | epot = 0.27260247589172 | etot = 8.14982062469048
117000  ekin = 4.8890672602373 |  erot = 2.96733261105241 | epot = 0.293420753402816 | etot = 8.14982062469253
118000  ekin = 4.86947945769256 |  erot = 2.96533202764461 | epot = 0.315009139357529 | etot = 8.1498206246947
119000  ekin = 4.84899730403052 |  erot = 2.96349313050634 | epot = 0.337330190160119 | etot = 8.14982062469698
120000  ekin = 4.82763597245782 |  erot = 2.96183998842954 | epot = 0.360344663811985 | etot = 8.14982062469935
121000  ekin = 4.80541185269386 |  erot = 2.96039726355361 | epot = 0.384011508454361 | etot = 8.14982062470184
122000  ekin = 4.78234258060416 |  erot = 2.95919018802581 | epot = 0.408287856074441 | etot = 8.14982062470441
123000  ekin = 4.75844706589081 |  erot = 2.9582445366353 | epot = 0.433129022180995 | etot = 8.14982062470711
124000  ekin = 4.73374551737028 |  erot = 2.95758659504216 | epot = 0.458488512297473 | etot = 8.14982062470991
125000  ekin = 4.70825946533658 |  erot = 2.95724312321768 | epot = 0.484318036158582 | etot = 8.14982062471284
126000  ekin = 4.68201178047813 |  erot = 2.95724131371001 | epot = 0.510567530527704 | etot = 8.14982062471585
127000  ekin = 4.65502668878935 |  erot = 2.95760874435338 | epot = 0.537185191576259 | etot = 8.14982062471899
128000  ekin = 4.62732978189388 |  erot = 2.95837332504832 | epot = 0.564117517780024 | etot = 8.14982062472222
129000  ekin = 4.59894802217753 |  erot = 2.959563238258 | epot = 0.591309364290039 | etot = 8.14982062472557
130000  ekin = 4.56990974211516 |  erot = 2.96120687288973 | epot = 0.618704009724096 | etot = 8.14982062472899
131000  ekin = 4.54024463716954 |  erot = 2.96333275126505 | epot = 0.646243236297916 | etot = 8.1498206247325
132000  ekin = 4.5099837516414 |  erot = 2.96596944892516 | epot = 0.673867424169528 | etot = 8.14982062473609
133000  ekin = 4.47915945686145 |  erot = 2.96914550707238 | epot = 0.70151566080592 | etot = 8.14982062473976
134000  ekin = 4.44780542113628 |  erot = 2.97288933751409 | epot = 0.729125866093112 | etot = 8.14982062474348
135000  ekin = 4.41595657089388 |  erot = 2.97722912005227 | epot = 0.756634933801088 | etot = 8.14982062474723
136000  ekin = 4.38364904252093 |  erot = 2.98219269235152 | epot = 0.783978889878597 | etot = 8.14982062475104
137000  ekin = 4.3509201244439 |  erot = 2.98780743241921 | epot = 0.811093067891735 | etot = 8.14982062475485
138000  ekin = 4.31780818908119 |  erot = 2.99410013394499 | epot = 0.837912301732542 | etot = 8.14982062475872
139000  ekin = 4.28435261438243 |  erot = 3.00109687487076 | epot = 0.864371135509367 | etot = 8.14982062476256
140000  ekin = 4.25059369477649 |  erot = 3.00882287969693 | epot = 0.890404050292968 | etot = 8.14982062476639
141000  ekin = 4.21657254146801 |  erot = 3.01730237617324 | epot = 0.915945707128912 | etot = 8.14982062477016
142000  ekin = 4.18233097215615 |  erot = 3.02655844717204 | epot = 0.94093120544574 | etot = 8.14982062477393
143000  ekin = 4.14791139039435 |  erot = 3.03661287869501 | epot = 0.965296355688263 | etot = 8.14982062477762
144000  ekin = 4.11335665496676 |  erot = 3.04748600511864 | epot = 0.988977964695786 | etot = 8.14982062478119
145000  ekin = 4.07870993982196 |  erot = 3.05919655293562 | epot = 1.01191413202706 | etot = 8.14982062478465
146000  ekin = 4.04401458527497 |  erot = 3.07176148439419 | epot = 1.03404455511881 | etot = 8.14982062478798
147000  ekin = 4.00931394136203 |  erot = 3.08519584257253 | epot = 1.05531084085662 | etot = 8.14982062479118
148000  ekin = 3.97465120440357 |  erot = 3.09951259954414 | epot = 1.07565682084649 | etot = 8.1498206247942
149000  ekin = 3.94006924799693 |  erot = 3.11472250939059 | epot = 1.09502886740948 | etot = 8.149820624797
150000  ekin = 3.905610449816 |  erot = 3.13083396789268 | epot = 1.1133762070909 | etot = 8.14982062479958
151000  ekin = 3.87131651573593 |  erot = 3.14785288077862 | epot = 1.13065122828744 | etot = 8.14982062480199
152000  ekin = 3.8372283029231 |  erot = 3.16578254242218 | epot = 1.14680977945885 | etot = 8.14982062480414
153000  ekin = 3.80175424250311 |  erot = 3.17738738042037 | epot = 1.17067899576984 | etot = 8.14982061869333
154000  ekin = 3.77134772819332 |  erot = 3.16310979691707 | epot = 1.2153631001406 | etot = 8.14982062525099
155000  ekin = 3.77094740964807 |  erot = 3.16840847014935 | epot = 1.21046474150944 | etot = 8.14982062130686
156000  ekin = 3.75914998143561 |  erot = 3.18846439243402 | epot = 1.20220624794429 | etot = 8.14982062181392
157000  ekin = 3.72899299034106 |  erot = 3.20705778360733 | epot = 1.21376984786671 | etot = 8.1498206218151
158000  ekin = 3.69927841208179 |  erot = 3.22648022836231 | epot = 1.22406198137187 | etot = 8.14982062181597
159000  ekin = 3.67003657568784 |  erot = 3.24672230673902 | epot = 1.23306173938966 | etot = 8.14982062181652
160000  ekin = 3.64129584789818 |  erot = 3.26777176708691 | epot = 1.24075300683165 | etot = 8.14982062181674
161000  ekin = 3.61308251371866 |  erot = 3.28961352219947 | epot = 1.24712458589854 | etot = 8.14982062181667
162000  ekin = 3.58542067074056 |  erot = 3.31222966548071 | epot = 1.25217028559499 | etot = 8.14982062181625
163000  ekin = 3.55833213842981 |  erot = 3.33559950748864 | epot = 1.25588897589705 | etot = 8.1498206218155
164000  ekin = 3.53183638339199 |  erot = 3.35969963291511 | epot = 1.25828460550737 | etot = 8.14982062181447
165000  ekin = 3.50595046139196 |  erot = 3.38450397777008 | epot = 1.25936618265101 | etot = 8.14982062181305
166000  ekin = 3.48068897666488 |  erot = 3.4099839262456 | epot = 1.25914771890084 | etot = 8.14982062181132
167000  ekin = 3.45606405880372 |  erot = 3.4361084264498 | epot = 1.25764813655576 | etot = 8.14982062180928
168000  ekin = 3.43208535725299 |  erot = 3.46284412393036 | epot = 1.25489114062363 | etot = 8.14982062180698
169000  ekin = 3.40876005318624 |  erot = 3.49015551165654 | epot = 1.25090505696157 | etot = 8.14982062180435
170000  ekin = 3.3860928883015 |  erot = 3.51800509490611 | epot = 1.24572263859387 | etot = 8.14982062180148
171000  ekin = 3.36408620984049 |  erot = 3.54635356931177 | epot = 1.23938084264608 | etot = 8.14982062179835
172000  ekin = 3.34274003092947 |  erot = 3.57516001016673 | epot = 1.23192058069879 | etot = 8.14982062179499
173000  ekin = 3.32205210515536 |  erot = 3.60438207097222 | epot = 1.22338644566383 | etot = 8.14982062179141
174000  ekin = 3.30201801413523 |  erot = 3.63397618913387 | epot = 1.21382641851858 | etot = 8.14982062178769
175000  ekin = 3.28263126671181 |  erot = 3.66389779667751 | epot = 1.20329155839446 | etot = 8.14982062178378
176000  ekin = 3.26388340831375 |  erot = 3.69410153385912 | epot = 1.19183567960687 | etot = 8.14982062177974
177000  ekin = 3.24576413895815 |  erot = 3.72454146358473 | epot = 1.17951501923267 | etot = 8.14982062177555
178000  ekin = 3.22826143834301 |  erot = 3.75517128463138 | epot = 1.16638789879689 | etot = 8.14982062177128
179000  ekin = 3.21136169647746 |  erot = 3.7859445417663 | epot = 1.15251438352317 | etot = 8.14982062176693
180000  ekin = 3.19504984832583 |  erot = 3.81681483099345 | epot = 1.13795594244323 | etot = 8.14982062176251
181000  ekin = 3.17930951099491 |  erot = 3.84773599830953 | epot = 1.12277511245364 | etot = 8.14982062175808
182000  ekin = 3.16412312206853 |  erot = 3.87866233052052 | epot = 1.10703516916459 | etot = 8.14982062175364
183000  ekin = 3.14947207778694 |  erot = 3.90954873685022 | epot = 1.09079980711207 | etot = 8.14982062174924
184000  ekin = 3.13533686987531 |  erot = 3.94035092025845 | epot = 1.07413283161107 | etot = 8.14982062174484
185000  ekin = 3.12169721994418 |  erot = 3.97102553757423 | epot = 1.05709786422214 | etot = 8.14982062174055
186000  ekin = 3.10853221050898 |  erot = 4.00153034773569 | epot = 1.03975806349168 | etot = 8.14982062173635
187000  ekin = 3.09582041180441 |  erot = 4.03182434760726 | epot = 1.02217586232049 | etot = 8.14982062173216
188000  ekin = 3.0835400036979 |  erot = 4.06186789501627 | epot = 1.0044127230139 | etot = 8.14982062172808
189000  ekin = 3.07166889213288 |  erot = 4.09162281881049 | epot = 0.986528910780758 | etot = 8.14982062172412
190000  ekin = 3.06018481965395 |  erot = 4.12105251588522 | epot = 0.968583286181134 | etot = 8.14982062172031
191000  ekin = 3.04906546968137 |  erot = 4.15012203526131 | epot = 0.950633116773959 | etot = 8.14982062171663
192000  ekin = 3.03828856430884 |  erot = 4.17879814941372 | epot = 0.932733907990577 | etot = 8.14982062171314
193000  ekin = 3.02783195549675 |  erot = 4.20704941315382 | epot = 0.914939253059161 | etot = 8.14982062170973
194000  ekin = 3.01767370962059 |  erot = 4.23484621045751 | epot = 0.897300701628466 | etot = 8.14982062170656
195000  ekin = 3.00779218541228 |  erot = 4.26216078970603 | epot = 0.879867646585171 | etot = 8.14982062170348
196000  ekin = 2.99816610539954 |  erot = 4.28896728786877 | epot = 0.862687228432228 | etot = 8.14982062170054
197000  ekin = 2.98877462100556 |  erot = 4.31524174420626 | epot = 0.845804256485965 | etot = 8.14982062169779
198000  ekin = 2.97959737151963 |  erot = 4.3409621041111 | epot = 0.829261146064487 | etot = 8.14982062169523
199000  ekin = 2.97061453718719 |  erot = 4.36610821373295 | epot = 0.81309787077276 | etot = 8.1498206216929
200000  ekin = 2.96180688669845 |  erot = 4.3906618060542 | epot = 0.797351928938081 | etot = 8.14982062169073
201000  ekin = 2.9531558193771 |  erot = 4.41460647909547 | epot = 0.782058323216156 | etot = 8.14982062168873
202000  ekin = 2.9446434023859 |  erot = 4.43792766693662 | epot = 0.767249552364389 | etot = 8.14982062168691
203000  ekin = 2.93625240327545 |  erot = 4.46061260423909 | epot = 0.752955614170728 | etot = 8.14982062168527
204000  ekin = 2.92796631820644 |  erot = 4.48265028495235 | epot = 0.739204018524995 | etot = 8.14982062168379
205000  ekin = 2.91976939617496 |  erot = 4.50403141587822 | epot = 0.726019809629297 | etot = 8.14982062168248
206000  ekin = 2.91164665956576 |  erot = 4.5247483657565 | epot = 0.713425596359087 | etot = 8.14982062168134
207000  ekin = 2.90358392135072 |  erot = 4.54479511052045 | epot = 0.701441589809227 | etot = 8.14982062168039
208000  ekin = 2.89556779923903 |  erot = 4.56416717535401 | epot = 0.69008564708653 | etot = 8.14982062167957
209000  ekin = 2.88758572707258 |  erot = 4.58286157416386 | epot = 0.679373320442441 | etot = 8.14982062167888
210000  ekin = 2.87962596374586 |  erot = 4.60087674705735 | epot = 0.669317910875171 | etot = 8.14982062167838
211000  ekin = 2.87167759991331 |  erot = 4.61821249639437 | epot = 0.659930525370338 | etot = 8.14982062167802
212000  ekin = 2.86373056273004 |  erot = 4.6348699219556 | epot = 0.651220136992161 | etot = 8.1498206216778
213000  ekin = 2.85577561885399 |  erot = 4.6508513557415 | epot = 0.643193647082275 | etot = 8.14982062167776
214000  ekin = 2.84780437591874 |  erot = 4.66616029688693 | epot = 0.635855948872131 | etot = 8.1498206216778
215000  ekin = 2.83980928266724 |  erot = 4.68080134714408 | epot = 0.629209991866655 | etot = 8.14982062167799
216000  ekin = 2.8317836279172 |  erot = 4.69478014735197 | epot = 0.623256846409089 | etot = 8.14982062167826
217000  ekin = 2.82372153850881 |  erot = 4.70810331527486 | epot = 0.617995767894973 | etot = 8.14982062167864
218000  ekin = 2.81561797636589 |  erot = 4.72077838515271 | epot = 0.613424260160555 | etot = 8.14982062167916
219000  ekin = 2.80746873478076 |  erot = 4.73281374926681 | epot = 0.609538137632219 | etot = 8.14982062167978
220000  ekin = 2.79927043401304 |  erot = 4.74421860178098 | epot = 0.606331585886488 | etot = 8.14982062168051
221000  ekin = 2.79102051627209 |  erot = 4.75500288507492 | epot = 0.603797220334327 | etot = 8.14982062168134
222000  ekin = 2.78271724013181 |  erot = 4.7651772387404 | epot = 0.601926142810033 | etot = 8.14982062168225
223000  ekin = 2.77435967440621 |  erot = 4.77475295136527 | epot = 0.600707995911753 | etot = 8.14982062168323
224000  ekin = 2.76594769149312 |  erot = 4.78374191518256 | epot = 0.600131015008603 | etot = 8.14982062168428
225000  ekin = 2.75748196017308 |  erot = 4.79215658361494 | epot = 0.60018207789741 | etot = 8.14982062168544
226000  ekin = 2.74896393782972 |  erot = 4.80000993169783 | epot = 0.600846752159115 | etot = 8.14982062168667
227000  ekin = 2.74039586203767 |  erot = 4.80731541931834 | epot = 0.602109340331969 | etot = 8.14982062168798
228000  ekin = 2.73178074144462 |  erot = 4.81408695716215 | epot = 0.603952923082605 | etot = 8.14982062168937
229000  ekin = 2.72312234585443 |  erot = 4.82033887521764 | epot = 0.606359400618738 | etot = 8.14982062169081
230000  ekin = 2.71442519540005 |  erot = 4.82608589364615 | epot = 0.609309532646131 | etot = 8.14982062169233
231000  ekin = 2.70569454867734 |  erot = 4.83134309578928 | epot = 0.61278297722728 | etot = 8.1498206216939
232000  ekin = 2.69693638969501 |  erot = 4.83612590305084 | epot = 0.616758328949701 | etot = 8.14982062169555
233000  ekin = 2.68815741348076 |  erot = 4.84045005136032 | epot = 0.621213156856146 | etot = 8.14982062169723
234000  ekin = 2.6793650101716 |  erot = 4.84433156890003 | epot = 0.626124042627315 | etot = 8.14982062169895
235000  ekin = 2.6705672474051 |  erot = 4.84778675475729 | epot = 0.631466619538358 | etot = 8.14982062170075
236000  ekin = 2.66177285082116 |  erot = 4.85083215814804 | epot = 0.637215612733409 | etot = 8.1498206217026
237000  ekin = 2.65299118247825 |  erot = 4.85348455784946 | epot = 0.643344881376799 | etot = 8.14982062170451
238000  ekin = 2.64423221698712 |  erot = 4.85576094147592 | epot = 0.649827463243434 | etot = 8.14982062170647
239000  ekin = 2.63550651516673 |  erot = 4.85767848423569 | epot = 0.656635622306063 | etot = 8.14982062170849
240000  ekin = 2.62682519503396 |  erot = 4.85925452681643 | epot = 0.663740899860116 | etot = 8.14982062171051
241000  ekin = 2.61819989994914 |  erot = 4.8605065520635 | epot = 0.671114169699932 | etot = 8.14982062171257
242000  ekin = 2.60964276375554 |  erot = 4.86145216013851 | epot = 0.678725697820612 | etot = 8.14982062171466
243000  ekin = 2.60116637277157 |  erot = 4.86210904187594 | epot = 0.686545207069257 | etot = 8.14982062171677
244000  ekin = 2.59278372452047 |  erot = 4.86249495009134 | epot = 0.694541947107104 | etot = 8.14982062171892
245000  ekin = 2.5845081831138 |  erot = 4.86262766863768 | epot = 0.702684769969607 | etot = 8.14982062172109
246000  ekin = 2.57635343124182 |  erot = 4.86252497905439 | epot = 0.710942211427044 | etot = 8.14982062172326
247000  ekin = 2.56833341876562 |  erot = 4.86220462470681 | epot = 0.719282578252987 | etot = 8.14982062172541
248000  ekin = 2.56046230795268 |  erot = 4.86168427237203 | epot = 0.727674041402866 | etot = 8.14982062172757
249000  ekin = 2.55275441544868 |  erot = 4.86098147128779 | epot = 0.736084734993255 | etot = 8.14982062172972
250000  ekin = 2.54522415113347 |  erot = 4.86011360974542 | epot = 0.74448286085295 | etot = 8.14982062173184
251000  ekin = 2.53788595406641 |  erot = 4.85909786937316 | epot = 0.752836798294369 | etot = 8.14982062173394
252000  ekin = 2.53075422578656 |  erot = 4.85795117732131 | epot = 0.761115218628155 | etot = 8.14982062173602
253000  ekin = 2.52384326129345 |  erot = 4.85669015662556 | epot = 0.769287203819056 | etot = 8.14982062173806
254000  ekin = 2.51716717809401 |  erot = 4.85533107508632 | epot = 0.7773223685597 | etot = 8.14982062174002
255000  ekin = 2.51073984375943 |  erot = 4.85388979305959 | epot = 0.785190984922947 | etot = 8.14982062174196
256000  ekin = 2.50457480249015 |  erot = 4.85238171060746 | epot = 0.792864108646243 | etot = 8.14982062174385
257000  ekin = 2.49868520123651 |  erot = 4.85082171450127 | epot = 0.800313706007878 | etot = 8.14982062174566
258000  ekin = 2.49308371596581 |  erot = 4.84922412560796 | epot = 0.807512780173628 | etot = 8.1498206217474
259000  ekin = 2.48778247870104 |  erot = 4.84760264721757 | epot = 0.814435495830431 | etot = 8.14982062174905
260000  ekin = 2.48279300598216 |  erot = 4.84597031488741 | epot = 0.821057300881046 | etot = 8.14982062175061
261000  ekin = 2.47812612941573 |  erot = 4.84433944838446 | epot = 0.827355043951843 | etot = 8.14982062175203
262000  ekin = 2.47379192898205 |  erot = 4.84272160630247 | epot = 0.833307086468876 | etot = 8.1498206217534
263000  ekin = 2.46979966975994 |  erot = 4.8411275439128 | epot = 0.838893408081874 | etot = 8.14982062175461
264000  ekin = 2.46615774270859 |  erot = 4.83956717477983 | epot = 0.844095704267291 | etot = 8.14982062175571
265000  ekin = 2.46287361011178 |  erot = 4.83804953663193 | epot = 0.84889747501296 | etot = 8.14982062175668
266000  ekin = 2.45995375624432 |  erot = 4.8365827619289 | epot = 0.853284103584274 | etot = 8.1498206217575
267000  ekin = 2.45740364376376 |  erot = 4.83517405350821 | epot = 0.857242924486242 | etot = 8.14982062175821
268000  ekin = 2.45522767626331 |  erot = 4.83382966562544 | epot = 0.860763279870051 | etot = 8.14982062175879
269000  ekin = 2.45342916734628 |  erot = 4.83255489063158 | epot = 0.863836563781359 | etot = 8.14982062175922
270000  ekin = 2.45201031649993 |  erot = 4.83135405145284 | epot = 0.86645625380673 | etot = 8.1498206217595
271000  ekin = 2.45097219195866 |  erot = 4.83023049995879 | epot = 0.86861792984222 | etot = 8.14982062175967
272000  ekin = 2.45031472065589 |  erot = 4.8291866212246 | epot = 0.870319279879185 | etot = 8.14982062175968
273000  ekin = 2.45003668527259 |  erot = 4.82822384361416 | epot = 0.87156009287279 | etot = 8.14982062175954
274000  ekin = 2.45013572829924 |  erot = 4.82734265453431 | epot = 0.872342238925714 | etot = 8.14982062175926
275000  ekin = 2.45060836294124 |  erot = 4.82654262163926 | epot = 0.872669637178384 | etot = 8.14982062175889
276000  ekin = 2.45144999061452 |  erot = 4.82582241919766 | epot = 0.872548211946169 | etot = 8.14982062175835
277000  ekin = 2.45265492470241 |  erot = 4.82517985927648 | epot = 0.871985837778812 | etot = 8.1498206217577
278000  ekin = 2.45421642017614 |  erot = 4.8246119273437 | epot = 0.870992274237091 | etot = 8.14982062175693
279000  ekin = 2.45612670862182 |  erot = 4.82411482184922 | epot = 0.869579091285048 | etot = 8.14982062175609
280000  ekin = 2.45837703816672 |  erot = 4.82368399730818 | epot = 0.867759586280206 | etot = 8.1498206217551
281000  ekin = 2.46095771775738 |  erot = 4.82331421038518 | epot = 0.865548693611464 | etot = 8.14982062175402
282000  ekin = 2.46385816521229 |  erot = 4.82299956845989 | epot = 0.86296288808066 | etot = 8.14982062175283
283000  ekin = 2.46706695845149 |  erot = 4.82273358014433 | epot = 0.860020083155741 | etot = 8.14982062175157
284000  ekin = 2.47057188929519 |  erot = 4.82250920722053 | epot = 0.856739525234528 | etot = 8.14982062175024
285000  ekin = 2.47436001922174 |  erot = 4.82231891747045 | epot = 0.853141685056626 | etot = 8.14982062174881
286000  ekin = 2.47841773648263 |  erot = 4.82215473788168 | epot = 0.849248147383025 | etot = 8.14982062174733
287000  ekin = 2.48273081398597 |  erot = 4.82200830772733 | epot = 0.84508150003246 | etot = 8.14982062174576
288000  ekin = 2.48728446738148 |  erot = 4.82187093103961 | epot = 0.840665223323053 | etot = 8.14982062174414
289000  ekin = 2.4920634128065 |  erot = 4.82173362802054 | epot = 0.836023580915471 | etot = 8.14982062174251
290000  ekin = 2.49705192378437 |  erot = 4.82158718496128 | epot = 0.831181512995175 | etot = 8.14982062174082
291000  ekin = 2.50223388680214 |  erot = 4.82142220227195 | epot = 0.826164532665052 | etot = 8.14982062173915
292000  ekin = 2.50759285513368 |  erot = 4.82122914025614 | epot = 0.820998626347601 | etot = 8.14982062173742
293000  ekin = 2.51311210051519 |  erot = 4.82099836229955 | epot = 0.815710158920937 | etot = 8.14982062173569
294000  ekin = 2.51066149541332 |  erot = 4.81167494298296 | epot = 0.827484183211436 | etot = 8.14982062160771
295000  ekin = 2.47217370736898 |  erot = 4.75891946451462 | epot = 0.918727460431237 | etot = 8.14982063231484
296000  ekin = 2.4646643119119 |  erot = 4.72432953635122 | epot = 0.960826789339049 | etot = 8.14982063760217
297000  ekin = 2.52307196520327 |  erot = 4.74628419890676 | epot = 0.880464466051148 | etot = 8.14982063016117
298000  ekin = 2.58603905046874 |  erot = 4.78322804518687 | epot = 0.780553524873137 | etot = 8.14982062052874
299000  ekin = 2.59846047427229 |  erot = 4.79026917367684 | epot = 0.761090989066532 | etot = 8.14982063701567
300000  ekin = 2.60673046916821 |  erot = 4.79446788839745 | epot = 0.748622279447106 | etot = 8.14982063701277
301000  ekin = 2.61503009358941 |  erot = 4.79850216495923 | epot = 0.736288378461264 | etot = 8.1498206370099
302000  ekin = 2.62333144912514 |  erot = 4.80235351132271 | epot = 0.724135676559176 | etot = 8.14982063700703
303000  ekin = 2.63160676750694 |  erot = 4.80600370279084 | epot = 0.712210166706424 | etot = 8.1498206370042
304000  ekin = 2.63982846699188 |  erot = 4.80943482731125 | epot = 0.700557342698255 | etot = 8.14982063700138
305000  ekin = 2.64796920425194 |  erot = 4.81262932596201 | epot = 0.689222106784672 | etot = 8.14982063699862
306000  ekin = 2.65600192181414 |  erot = 4.81557002867195 | epot = 0.678248686509832 | etot = 8.14982063699592
307000  ekin = 2.66389989113652 |  erot = 4.81824018527208 | epot = 0.667680560584626 | etot = 8.14982063699322
308000  ekin = 2.67163675144029 |  erot = 4.8206234920149 | epot = 0.657560393535405 | etot = 8.1498206369906
309000  ekin = 2.67918654444954 |  erot = 4.82270411373423 | epot = 0.647929978804246 | etot = 8.14982063698802
310000  ekin = 2.68652374521717 |  erot = 4.82446670185046 | epot = 0.638830189917847 | etot = 8.14982063698547
311000  ekin = 2.69362328923917 |  erot = 4.82589640845344 | epot = 0.630300939290394 | etot = 8.149820636983
312000  ekin = 2.70046059607924 |  erot = 4.82697889671978 | epot = 0.622381144181543 | etot = 8.14982063698056
313000  ekin = 2.70701158974298 |  erot = 4.82770034794236 | epot = 0.615108699292863 | etot = 8.1498206369782
314000  ekin = 2.71325271605517 |  erot = 4.82804746546759 | epot = 0.60852045545313 | etot = 8.14982063697589
315000  ekin = 2.71916095730622 |  erot = 4.82800747585199 | epot = 0.602652203815418 | etot = 8.14982063697363
316000  ekin = 2.72471384444447 |  erot = 4.82756812756244 | epot = 0.597538664964517 | etot = 8.14982063697142
317000  ekin = 2.7298894670999 |  erot = 4.82671768755682 | epot = 0.593213482312539 | etot = 8.14982063696926
318000  ekin = 2.73466648173396 |  erot = 4.8254449360915 | epot = 0.589709219141698 | etot = 8.14982063696716
319000  ekin = 2.73902411821746 |  erot = 4.82373916011185 | epot = 0.587057358635807 | etot = 8.14982063696512
320000  ekin = 2.74294218514701 |  erot = 4.8215901455907 | epot = 0.585288306225405 | etot = 8.14982063696311
321000  ekin = 2.74640107421861 |  erot = 4.81898816918814 | epot = 0.584431393554416 | etot = 8.14982063696116
322000  ekin = 2.74938176398647 |  erot = 4.81592398961497 | epot = 0.584514883357821 | etot = 8.14982063695926
323000  ekin = 2.75186582334562 |  erot = 4.8123888390915 | epot = 0.585565974520274 | etot = 8.14982063695739
324000  ekin = 2.75383541508943 |  erot = 4.80837441530377 | epot = 0.587610806562379 | etot = 8.14982063695558
325000  ekin = 2.75527329990785 |  erot = 4.8038728742707 | epot = 0.59067446277524 | etot = 8.14982063695379
326000  ekin = 2.75616284120971 |  erot = 4.79887682454934 | epot = 0.59478097119301 | etot = 8.14982063695205
327000  ekin = 2.75648801117326 |  erot = 4.79337932322057 | epot = 0.599953302556507 | etot = 8.14982063695034
328000  ekin = 2.75623339845375 |  erot = 4.78737387411608 | epot = 0.606213364378825 | etot = 8.14982063694866
329000  ekin = 2.75538421800614 |  erot = 4.78085442876745 | epot = 0.613581990173445 | etot = 8.14982063694704
330000  ekin = 2.7539263235152 |  erot = 4.77381539058313 | epot = 0.622078922847135 | etot = 8.14982063694546
331000  ekin = 2.75184622296525 |  erot = 4.76625162278644 | epot = 0.63172279119223 | etot = 8.14982063694392
332000  ekin = 2.7491310979282 |  erot = 4.75815846067956 | epot = 0.642531078334641 | etot = 8.1498206369424
333000  ekin = 2.74576882720184 |  erot = 4.74953172883472 | epot = 0.654520080904346 | etot = 8.14982063694091
334000  ekin = 2.74174801549196 |  erot = 4.74036776385472 | epot = 0.667704857592782 | etot = 8.14982063693946
335000  ekin = 2.73705802790121 |  erot = 4.73066344339051 | epot = 0.682099165646345 | etot = 8.14982063693807
336000  ekin = 2.73168903106666 |  erot = 4.7204162221546 | epot = 0.697715383715469 | etot = 8.14982063693673
337000  ekin = 2.72563204187641 |  erot = 4.7096241757246 | epot = 0.714564419334415 | etot = 8.14982063693542
338000  ekin = 2.71887898479379 |  erot = 4.69828605299197 | epot = 0.732655599148422 | etot = 8.14982063693419
339000  ekin = 2.71142275892602 |  erot = 4.68640133817518 | epot = 0.751996539831814 | etot = 8.14982063693301
340000  ekin = 2.70325731609169 |  erot = 4.67397032338476 | epot = 0.772592997455462 | etot = 8.14982063693191
341000  ekin = 2.69437775126805 |  erot = 4.66099419279616 | epot = 0.79444869286668 | etot = 8.14982063693089
342000  ekin = 2.68478040693129 |  erot = 4.6474751195548 | epot = 0.817565110443904 | etot = 8.14982063692999
343000  ekin = 2.67446299294008 |  erot = 4.63341637660047 | epot = 0.841941267388676 | etot = 8.14982063692922
344000  ekin = 2.6634247237471 |  erot = 4.618822462653 | epot = 0.867573450528458 | etot = 8.14982063692856
345000  ekin = 2.65166647485137 |  erot = 4.60369924463772 | epot = 0.894454917438939 | etot = 8.14982063692803
346000  ekin = 2.63919096051358 |  erot = 4.58805411784238 | epot = 0.922575558571752 | etot = 8.14982063692771
347000  ekin = 2.62600293483691 |  erot = 4.57189618507195 | epot = 0.951921517018697 | etot = 8.14982063692756
348000  ekin = 2.61210941834741 |  erot = 4.55523645599147 | epot = 0.982474762588789 | etot = 8.14982063692767
349000  ekin = 2.5975199521691 |  erot = 4.53808806769699 | epot = 1.01421261706197 | etot = 8.14982063692805
350000  ekin = 2.58224688175044 |  erot = 4.52046652731018 | epot = 1.0471072278681 | etot = 8.14982063692872
351000  ekin = 2.56630567182128 |  erot = 4.50238997701965 | epot = 1.08112498808881 | etot = 8.14982063692974
352000  ekin = 2.54971525379855 |  erot = 4.48387948145633 | epot = 1.11622590167627 | etot = 8.14982063693115
353000  ekin = 2.53249840615679 |  erot = 4.46495933654928 | epot = 1.15236289422696 | etot = 8.14982063693303
354000  ekin = 2.51468216727022 |  erot = 4.44565739801088 | epot = 1.18948107165423 | etot = 8.14982063693533
355000  ekin = 2.49629827884038 |  erot = 4.42600542629478 | epot = 1.22751693180305 | etot = 8.1498206369382
356000  ekin = 2.47738365616443 |  erot = 4.40603944319878 | epot = 1.26639753757849 | etot = 8.1498206369417
357000  ekin = 2.45798087909034 |  erot = 4.38580009319783 | epot = 1.3060396646577 | etot = 8.14982063694586
358000  ekin = 2.43813869446873 |  erot = 4.36533300004521 | epot = 1.34634894243681 | etot = 8.14982063695075
359000  ekin = 2.41791251719103 |  erot = 4.34468910615891 | epot = 1.38721901360653 | etot = 8.14982063695647
360000  ekin = 2.39736491248442 |  erot = 4.32392497883175 | epot = 1.42853074564686 | etot = 8.14982063696302
361000  ekin = 2.37656603706768 |  erot = 4.30310306345283 | epot = 1.47015153644994 | etot = 8.14982063697044
362000  ekin = 2.35559401120926 |  erot = 4.28229185986857 | epot = 1.51193476590103 | etot = 8.14982063697886
363000  ekin = 2.33453518796086 |  erot = 4.26156599402258 | epot = 1.55371945500477 | etot = 8.14982063698821
364000  ekin = 2.31348428033254 |  erot = 4.24100615351131 | epot = 1.59533020315464 | etot = 8.1498206369985
365000  ekin = 2.29254430260185 |  erot = 4.22069885324442 | epot = 1.63657748116343 | etot = 8.14982063700971
366000  ekin = 2.27182627920016 |  erot = 4.20073599672524 | epot = 1.67725836109635 | etot = 8.14982063702175
367000  ekin = 2.25144867477451 |  erot = 4.18121420040077 | epot = 1.71715776185929 | etot = 8.14982063703457
368000  ekin = 2.23153650326753 |  erot = 4.16223385394088 | epot = 1.75605027983961 | etot = 8.14982063704802
369000  ekin = 2.21222008333001 |  erot = 4.14389789896162 | epot = 1.79370265477028 | etot = 8.14982063706191
370000  ekin = 2.19363342293384 |  erot = 4.12631032308207 | epot = 1.82987689106005 | etot = 8.14982063707596
371000  ekin = 2.17591223796329 |  erot = 4.1095743852513 | epot = 1.86433401387536 | etot = 8.14982063708994
372000  ekin = 2.15919163720782 |  erot = 4.09379061120334 | epot = 1.89683838869237 | etot = 8.14982063710353
373000  ekin = 2.14360353778455 |  erot = 4.07905462297658 | epot = 1.92716247635527 | etot = 8.1498206371164
374000  ekin = 2.12927390755307 |  erot = 4.06545489101935 | epot = 1.95509183855578 | etot = 8.1498206371282
375000  ekin = 2.11631996044154 |  erot = 4.05307051811158 | epot = 1.98043015858548 | etot = 8.1498206371386
376000  ekin = 2.10484745208526 |  erot = 4.04196917750229 | epot = 2.00300400755986 | etot = 8.14982063714741
377000  ekin = 2.09494823232931 |  erot = 4.03220533003914 | epot = 2.02266707478593 | etot = 8.14982063715437
378000  ekin = 2.0866982047241 |  erot = 4.02381883457633 | epot = 2.03930359785885 | etot = 8.14982063715928
379000  ekin = 2.080155820055 |  erot = 4.01683404236993 | epot = 2.0528307747372 | etot = 8.14982063716213
380000  ekin = 2.07536119282551 |  erot = 4.01125943148916 | epot = 2.06320001284819 | etot = 8.14982063716285
381000  ekin = 2.07233588079399 |  erot = 4.0070877955272 | epot = 2.07039696084037 | etot = 8.14982063716156
382000  ekin = 2.07108331451371 |  erot = 4.0042969575218 | epot = 2.07444036512292 | etot = 8.14982063715843
383000  ekin = 2.07158981352336 |  erot = 4.0028509407813 | epot = 2.0753798828489 | etot = 8.14982063715357
384000  ekin = 2.07382608494033 |  erot = 4.00270149824974 | epot = 2.07329305395733 | etot = 8.1498206371474
385000  ekin = 2.07774907340045 |  erot = 4.00378988438921 | epot = 2.06828167935048 | etot = 8.14982063714015
386000  ekin = 2.08330402061314 |  erot = 4.00604874933851 | epot = 2.06046786718 | etot = 8.14982063713165
387000  ekin = 2.09042659757294 |  erot = 4.0094040431705 | epot = 2.04998999637921 | etot = 8.14982063712266
388000  ekin = 2.09904498977758 |  erot = 4.01377683559837 | epot = 2.03699881173725 | etot = 8.1498206371132
389000  ekin = 2.10908184139803 |  erot = 4.01908497975674 | epot = 2.02165381594875 | etot = 8.14982063710352
390000  ekin = 2.12045599362418 |  erot = 4.02524457390084 | epot = 2.00412006956876 | etot = 8.14982063709379
391000  ekin = 2.13308398125129 |  erot = 4.03217119877578 | epot = 1.98456545705706 | etot = 8.14982063708413
392000  ekin = 2.14688127688151 |  erot = 4.0397809286903 | epot = 1.96315843150283 | etot = 8.14982063707464
393000  ekin = 2.16176329203297 |  erot = 4.0479911297232 | epot = 1.94006621530915 | etot = 8.14982063706531
394000  ekin = 2.17764615828844 |  erot = 4.05672106867343 | epot = 1.9154534100945 | etot = 8.14982063705637
395000  ekin = 2.19444731962264 |  erot = 4.06589236174037 | epot = 1.88948095568472 | etot = 8.14982063704772
396000  ekin = 2.21208597008314 |  erot = 4.07542929333375 | epot = 1.86230537362254 | etot = 8.14982063703942
397000  ekin = 2.23048337023969 |  erot = 4.08525903390618 | epot = 1.83407823288567 | etot = 8.14982063703155
398000  ekin = 2.24956307249426 |  erot = 4.09531178231833 | epot = 1.8049457822114 | etot = 8.149820637024
399000  ekin = 2.26925108058342 |  erot = 4.10552085389946 | epot = 1.77504870253402 | etot = 8.1498206370169
400000  ekin = 2.28947596331974 |  erot = 4.11582273077468 | epot = 1.74452194291565 | etot = 8.14982063701007
401000  ekin = 2.31016893747902 |  erot = 4.1261570867002 | epot = 1.71349461282446 | etot = 8.14982063700368
402000  ekin = 2.33126393017722 |  erot = 4.13646679488985 | epot = 1.68208991193057 | etot = 8.14982063699764
403000  ekin = 2.35269762732366 |  erot = 4.14669792427757 | epot = 1.65042508539073 | etot = 8.14982063699195
404000  ekin = 2.37440951185641 |  erot = 4.15679972736611 | epot = 1.6186113977641 | etot = 8.14982063698662
405000  ekin = 2.39634189342123 |  erot = 4.16672462120723 | epot = 1.58675412235319 | etot = 8.14982063698165
406000  ekin = 2.41843992984143 |  erot = 4.17642816203753 | epot = 1.55495254509808 | etot = 8.14982063697704
407000  ekin = 2.44065164000004 |  erot = 4.18586901353655 | epot = 1.5232999834362 | etot = 8.14982063697279
408000  ekin = 2.46292790747231 |  erot = 4.1950089084531 | epot = 1.49188382104347 | etot = 8.14982063696888
409000  ekin = 2.48522247426647 |  erot = 4.20381260335329 | epot = 1.46078555934556 | etot = 8.14982063696532
410000  ekin = 2.50749192423706 |  erot = 4.21224782638548 | epot = 1.43008088633953 | etot = 8.14982063696206
411000  ekin = 2.52969565603421 |  erot = 4.22028521816062 | epot = 1.39983976276434 | etot = 8.14982063695917
412000  ekin = 2.55179584577484 |  erot = 4.22789826606268 | epot = 1.37012652511904 | etot = 8.14982063695656
413000  ekin = 2.57375739992111 |  erot = 4.23506323249549 | epot = 1.34100000453768 | etot = 8.14982063695427
414000  ekin = 2.5955478991003 |  erot = 4.24175907772435 | epot = 1.31251366012761 | etot = 8.14982063695227
415000  ekin = 2.61713753378436 |  erot = 4.2479673780722 | epot = 1.28471572509399 | etot = 8.14982063695055
416000  ekin = 2.63849903286415 |  erot = 4.25367224028231 | epot = 1.25764936380266 | etot = 8.14982063694913
417000  ekin = 2.65960758620848 |  erot = 4.25886021286702 | epot = 1.23135283787251 | etot = 8.14982063694801
418000  ekin = 2.68044076229793 |  erot = 4.26352019523216 | epot = 1.20585967941705 | etot = 8.14982063694714
419000  ekin = 2.70097842198132 |  erot = 4.26764334530876 | epot = 1.18119886965642 | etot = 8.1498206369465
420000  ekin = 2.72120262932758 |  erot = 4.27122298634536 | epot = 1.15739502127321 | etot = 8.14982063694615
421000  ekin = 2.74109756044972 |  erot = 4.27425451342477 | epot = 1.13446856307154 | etot = 8.14982063694603
422000  ekin = 2.76064941106865 |  erot = 4.27673530017412 | epot = 1.11243592570331 | etot = 8.14982063694609
423000  ekin = 2.77984630347184 |  erot = 4.27866460604242 | epot = 1.09130972743207 | etot = 8.14982063694633
424000  ekin = 2.79867819340957 |  erot = 4.28004348443043 | epot = 1.07109895910678 | etot = 8.14982063694678
425000  ekin = 2.8171367773665 |  erot = 4.28087469187486 | epot = 1.05180916770606 | etot = 8.14982063694741
426000  ekin = 2.83521540054963 |  erot = 4.28116259841695 | epot = 1.03344263798163 | etot = 8.14982063694821
427000  ekin = 2.852908965849 |  erot = 4.28091309922289 | epot = 1.01599857187729 | etot = 8.14982063694918
428000  ekin = 2.87021384395496 |  erot = 4.28013352747321 | epot = 0.999473265522148 | etot = 8.14982063695033
429000  ekin = 2.88712778475654 |  erot = 4.27883256849876 | epot = 0.983860283696298 | etot = 8.1498206369516
430000  ekin = 2.90364983009837 |  erot = 4.27702017511166 | epot = 0.969150631742927 | etot = 8.14982063695296
431000  ekin = 2.91978022793921 |  erot = 4.27470748406157 | epot = 0.955332924953696 | etot = 8.14982063695447
432000  ekin = 2.93552034793149 |  erot = 4.27190673353752 | epot = 0.942393555487106 | etot = 8.14982063695611
433000  ekin = 2.95087259842857 |  erot = 4.26863118163521 | epot = 0.930316856894067 | etot = 8.14982063695784
434000  ekin = 2.96584034492214 |  erot = 4.26489502571564 | epot = 0.919085266321896 | etot = 8.14982063695967
435000  ekin = 2.98042782991638 |  erot = 4.26071332259407 | epot = 0.908679484451146 | etot = 8.14982063696159
436000  ekin = 2.99464009425629 |  erot = 4.25610190951649 | epot = 0.899078633190763 | etot = 8.14982063696355
437000  ekin = 3.00848289994376 |  erot = 4.2510773259036 | epot = 0.890260411118229 | etot = 8.14982063696559
438000  ekin = 3.02196265449552 |  erot = 4.24565673586818 | epot = 0.882201246604017 | etot = 8.14982063696772
439000  ekin = 3.03508633692098 |  erot = 4.23985785154106 | epot = 0.874876448507826 | etot = 8.14982063696987
440000  ekin = 3.04786142542348 |  erot = 4.23369885727062 | epot = 0.868260354277949 | etot = 8.14982063697205
441000  ekin = 3.06029582695496 |  erot = 4.22719833479175 | epot = 0.862326475227564 | etot = 8.14982063697427
442000  ekin = 3.07239780878059 |  erot = 4.22037518949119 | epot = 0.857047638704729 | etot = 8.14982063697651
443000  ekin = 3.08417593223484 |  erot = 4.2132485779254 | epot = 0.852396126818533 | etot = 8.14982063697877
444000  ekin = 3.09563898887315 |  erot = 4.20583783677461 | epot = 0.848343811333277 | etot = 8.14982063698103
445000  ekin = 3.1067959392435 |  erot = 4.19816241344216 | epot = 0.844862284297628 | etot = 8.14982063698329
446000  ekin = 3.1176558545176 |  erot = 4.19024179852891 | epot = 0.84192298393904 | etot = 8.14982063698555
447000  ekin = 3.12822786123302 |  erot = 4.18209546043051 | epot = 0.839497315324273 | etot = 8.1498206369878
448000  ekin = 3.1385210894033 |  erot = 4.17374278231802 | epot = 0.837556765268705 | etot = 8.14982063699003
449000  ekin = 3.14854462425368 |  erot = 4.16520300177012 | epot = 0.836073010968406 | etot = 8.14982063699221
450000  ekin = 3.1583074618345 |  erot = 4.15649515332763 | epot = 0.835018021832238 | etot = 8.14982063699438
451000  ekin = 3.16781846875256 |  erot = 4.14763801423867 | epot = 0.834364154005259 | etot = 8.14982063699649
452000  ekin = 3.17708634624318 |  erot = 4.1386500536538 | epot = 0.83408423710156 | etot = 8.14982063699854
453000  ekin = 3.18611959878213 |  erot = 4.12954938551753 | epot = 0.834151652700908 | etot = 8.14982063700056
454000  ekin = 3.19492650740746 |  erot = 4.12035372538337 | epot = 0.834540404211678 | etot = 8.14982063700251
455000  ekin = 3.20351510788752 |  erot = 4.11108035135673 | epot = 0.835225177760182 | etot = 8.14982063700442
456000  ekin = 3.21189317383288 |  erot = 4.10174606934231 | epot = 0.836181393831071 | etot = 8.14982063700626
457000  ekin = 3.22006820480841 |  erot = 4.09236718274242 | epot = 0.837385249457218 | etot = 8.14982063700805
458000  ekin = 3.22804741945729 |  erot = 4.08295946671833 | epot = 0.838813750834162 | etot = 8.14982063700978
459000  ekin = 3.23583775360266 |  erot = 4.0735381470927 | epot = 0.840444736316071 | etot = 8.14982063701143
460000  ekin = 3.24344586324631 |  erot = 4.0641178839334 | epot = 0.842256889833275 | etot = 8.14982063701298
461000  ekin = 3.25087813233733 |  erot = 4.0547127598232 | epot = 0.844229744853953 | etot = 8.14982063701448
462000  ekin = 3.25814068513832 |  erot = 4.04533627278333 | epot = 0.846343679094314 | etot = 8.14982063701596
463000  ekin = 3.26523940297441 |  erot = 4.03600133378348 | epot = 0.84857990025944 | etot = 8.14982063701733
464000  ekin = 3.27217994510972 |  erot = 4.02672026873742 | epot = 0.850920423171565 | etot = 8.1498206370187
465000  ekin = 3.27896777345897 |  erot = 4.01750482485184 | epot = 0.853348038709172 | etot = 8.14982063701998
466000  ekin = 3.2856081808094 |  erot = 4.00836618116661 | epot = 0.855846275045207 | etot = 8.14982063702123
467000  ekin = 3.29210632219825 |  erot = 3.99931496309747 | epot = 0.858399351726672 | etot = 8.14982063702239
468000  ekin = 3.29846724906607 |  erot = 3.99036126076744 | epot = 0.860992127189993 | etot = 8.14982063702351
469000  ekin = 3.30469594578425 |  erot = 3.98151465088982 | epot = 0.863610040350517 | etot = 8.14982063702458
470000  ekin = 3.31079736813633 |  erot = 3.9727842219435 | epot = 0.866239046945797 | etot = 8.14982063702563
471000  ekin = 3.31677648331677 |  erot = 3.96417860236038 | epot = 0.868865551349479 | etot = 8.14982063702663
472000  ekin = 3.32263831099611 |  erot = 3.95570599142233 | epot = 0.871476334609171 | etot = 8.14982063702761
473000  ekin = 3.32838796498801 |  erot = 3.94737419254265 | epot = 0.874058479497855 | etot = 8.14982063702852
474000  ekin = 3.33403069504007 |  erot = 3.93919064858187 | epot = 0.876599293407498 | etot = 8.14982063702943
475000  ekin = 3.33957192825505 |  erot = 3.93116247881949 | epot = 0.879086229955825 | etot = 8.14982063703037
476000  ekin = 3.34501730963313 |  erot = 3.92329651717152 | epot = 0.881506810226604 | etot = 8.14982063703125
477000  ekin = 3.35037274120576 |  erot = 3.91559935120692 | epot = 0.883848544619467 | etot = 8.14982063703214
478000  ekin = 3.35564441920944 |  erot = 3.9080773614746 | epot = 0.88609885634898 | etot = 8.14982063703302
479000  ekin = 3.36083886872182 |  erot = 3.90073676060578 | epot = 0.888245007706289 | etot = 8.14982063703389
480000  ekin = 3.36596297515307 |  erot = 3.89358363160506 | epot = 0.890274030276633 | etot = 8.14982063703476
481000  ekin = 3.371024011954 |  erot = 3.88662396468756 | epot = 0.892172660394104 | etot = 8.14982063703567
482000  ekin = 3.37602966386908 |  erot = 3.8798636919611 | epot = 0.893927281206422 | etot = 8.1498206370366
483000  ekin = 3.38098804502974 |  erot = 3.87330871919277 | epot = 0.895523872815031 | etot = 8.14982063703754
484000  ekin = 3.38590771115357 |  erot = 3.86696495384144 | epot = 0.896947972043474 | etot = 8.14982063703849
485000  ekin = 3.39079766509056 |  erot = 3.86083832848514 | epot = 0.898184643463771 | etot = 8.14982063703947
486000  ekin = 3.39566735494311 |  erot = 3.85493481872797 | epot = 0.899218463369394 | etot = 8.14982063704047
487000  ekin = 3.40052666398586 |  erot = 3.84926045464117 | epot = 0.90003351841446 | etot = 8.14982063704148
488000  ekin = 3.40538589162876 |  erot = 3.84382132478107 | epot = 0.900613420632699 | etot = 8.14982063704253
489000  ekin = 3.41025572470823 |  erot = 3.83862357183896 | epot = 0.900941340496395 | etot = 8.14982063704359
490000  ekin = 3.41514719846083 |  erot = 3.83367337901984 | epot = 0.901000059563992 | etot = 8.14982063704466
491000  ekin = 3.42007164663673 |  erot = 3.82897694632462 | epot = 0.900772044084402 | etot = 8.14982063704574
492000  ekin = 3.42504064035091 |  erot = 3.82454045602679 | epot = 0.900239540669138 | etot = 8.14982063704684
493000  ekin = 3.43006591545051 |  erot = 3.82037002679627 | epot = 0.899384694801147 | etot = 8.14982063704792
494000  ekin = 3.43515928839982 |  erot = 3.81647165613003 | epot = 0.898189692519121 | etot = 8.14982063704898
495000  ekin = 3.44033256094848 |  erot = 3.81285115100414 | epot = 0.896636925097392 | etot = 8.14982063705002
496000  ekin = 3.44559741415162 |  erot = 3.80951404696031 | epot = 0.894709175939121 | etot = 8.14982063705104
497000  ekin = 3.45096529264605 |  erot = 3.80646551618004 | epot = 0.892389828225912 | etot = 8.149820637052
498000  ekin = 3.45644728044664 |  erot = 3.8037102654712 | epot = 0.889663091135055 | etot = 8.14982063705289
499000  ekin = 3.46205396989832 |  erot = 3.80125242548352 | epot = 0.886514241671842 | etot = 8.14982063705368
500000  ekin = 3.46779532578829 |  erot = 3.79909543286956 | epot = 0.882929878396565 | etot = 8.14982063705441
501000  ekin = 3.47368054697136 |  erot = 3.79724190749499 | epot = 0.878898182588638 | etot = 8.14982063705499
502000  ekin = 3.47971792817075 |  erot = 3.79569352716041 | epot = 0.874409181724314 | etot = 8.14982063705548
503000  ekin = 3.48591472486655 |  erot = 3.79445090260337 | epot = 0.869455009585882 | etot = 8.14982063705581
504000  ekin = 3.49227702435611 |  erot = 3.7935134557857 | epot = 0.864030156914139 | etot = 8.14982063705595
505000  ekin = 3.49880962614693 |  erot = 3.79287930461614 | epot = 0.858131706292743 | etot = 8.14982063705582
506000  ekin = 3.50551593481041 |  erot = 3.79254515729823 | epot = 0.851759544946947 | etot = 8.14982063705559
507000  ekin = 3.51239786827509 |  erot = 3.7925062194161 | epot = 0.844916549363953 | etot = 8.14982063705514
508000  ekin = 3.51945578426871 |  erot = 3.79275611667086 | epot = 0.837608736114957 | etot = 8.14982063705452
509000  ekin = 3.5266884272339 |  erot = 3.79328683586004 | epot = 0.829845373959749 | etot = 8.14982063705369
510000  ekin = 3.53409289755437 |  erot = 3.79408868626037 | epot = 0.821639053237892 | etot = 8.14982063705263
511000  ekin = 3.5416646443553 |  erot = 3.79515028304568 | epot = 0.813005709650394 | etot = 8.14982063705138
512000  ekin = 3.54939748250808 |  erot = 3.79645855377032 | epot = 0.803964600771498 | etot = 8.1498206370499
513000  ekin = 3.55728363380306 |  erot = 3.79799876829932 | epot = 0.794538234945844 | etot = 8.14982063704822
514000  ekin = 3.56531379158679 |  erot = 3.79975459190244 | epot = 0.784752253557109 | etot = 8.14982063704634
515000  ekin = 3.57347720752234 |  erot = 3.80170816057946 | epot = 0.774635268942508 | etot = 8.14982063704431
516000  ekin = 3.58176179855246 |  erot = 3.80384017707954 | epot = 0.764218661410126 | etot = 8.14982063704212
517000  ekin = 3.59015427165063 |  erot = 3.80613002554608 | epot = 0.753536339843097 | etot = 8.1498206370398
518000  ekin = 3.59864026355376 |  erot = 3.80855590227992 | epot = 0.742624471203676 | etot = 8.14982063703736
519000  ekin = 3.60720449239575 |  erot = 3.81109495978649 | epot = 0.731521184852608 | etot = 8.14982063703485
520000  ekin = 3.61583091800841 |  erot = 3.81372346106205 | epot = 0.720266257961741 | etot = 8.1498206370322
521000  ekin = 3.62450290762498 |  erot = 3.81641694098563 | epot = 0.708900788418913 | etot = 8.14982063702952
522000  ekin = 3.63320340380226 |  erot = 3.81915037170758 | epot = 0.697466861516987 | etot = 8.14982063702683
523000  ekin = 3.64191509155892 |  erot = 3.82189832905655 | epot = 0.686007216408644 | etot = 8.14982063702412
524000  ekin = 3.65062056199136 |  erot = 3.8246351572044 | epot = 0.674564917825637 | etot = 8.1498206370214
525000  ekin = 3.65930246995565 |  erot = 3.82733512911943 | epot = 0.663183037943656 | etot = 8.14982063701873
526000  ekin = 3.66794368377438 |  erot = 3.82997260067864 | epot = 0.6519043525631 | etot = 8.14982063701613
527000  ekin = 3.67652742531997 |  erot = 3.83252215668352 | epot = 0.640771055010054 | etot = 8.14982063701354
528000  ekin = 3.68503739922374 |  erot = 3.83495874740914 | epot = 0.629824490378174 | etot = 8.14982063701105
529000  ekin = 3.69345791034578 |  erot = 3.83725781469945 | epot = 0.619104911963443 | etot = 8.14982063700867
530000  ekin = 3.70177396900175 |  erot = 3.83939540698603 | epot = 0.608651261018597 | etot = 8.14982063700637
531000  ekin = 3.70997138376984 |  erot = 3.84134828294372 | epot = 0.598500970290656 | etot = 8.14982063700422
532000  ekin = 3.71803684198564 |  erot = 3.84309400379603 | epot = 0.588689791220512 | etot = 8.14982063700218
533000  ekin = 3.72595797827313 |  erot = 3.84461101454024 | epot = 0.579251644186898 | etot = 8.14982063700027
534000  ekin = 3.73372343165284 |  erot = 3.84587871457518 | epot = 0.570218490770497 | etot = 8.14982063699852
535000  ekin = 3.74132289191592 |  erot = 3.84687751838235 | epot = 0.561620226698616 | etot = 8.14982063699688
536000  ekin = 3.74874713605726 |  erot = 3.84758890703592 | epot = 0.5534845939022 | etot = 8.14982063699538
537000  ekin = 3.755988055625 |  erot = 3.84799547140106 | epot = 0.545837109968014 | etot = 8.14982063699407
538000  ekin = 3.76303867587373 |  erot = 3.84808094792726 | epot = 0.538701013191911 | etot = 8.1498206369929
539000  ekin = 3.76989316760791 |  erot = 3.84783024795822 | epot = 0.532097221425749 | etot = 8.14982063699188
540000  ekin = 3.77654685257575 |  erot = 3.84722948146648 | epot = 0.526044302948763 | etot = 8.149820636991
541000  ekin = 3.78299620322749 |  erot = 3.84626597608426 | epot = 0.52055845767852 | etot = 8.14982063699027
542000  ekin = 3.78923883758911 |  erot = 3.84492829224583 | epot = 0.515653507154755 | etot = 8.1498206369897
543000  ekin = 3.79527350992801 |  erot = 3.84320623518548 | epot = 0.511340891875765 | etot = 8.14982063698926
544000  ekin = 3.80110009780385 |  erot = 3.84109086445173 | epot = 0.507629674733419 | etot = 8.14982063698899
545000  ekin = 3.80671958600899 |  erot = 3.83857450150635 | epot = 0.504526549473539 | etot = 8.14982063698888
546000  ekin = 3.81213404781198 |  erot = 3.83565073587854 | epot = 0.502035853298389 | etot = 8.14982063698891
547000  ekin = 3.81734662382472 |  erot = 3.83231443024203 | epot = 0.500159582922319 | etot = 8.14982063698907
548000  ekin = 3.82236149872373 |  erot = 3.8285617246783 | epot = 0.498897413587354 | etot = 8.14982063698939
549000  ekin = 3.82718387596672 |  erot = 3.82439004028377 | epot = 0.498246720739384 | etot = 8.14982063698987
550000  ekin = 3.83181995056225 |  erot = 3.81979808217375 | epot = 0.498202604254472 | etot = 8.14982063699048
551000  ekin = 3.83627687986966 |  erot = 3.8147858418332 | epot = 0.498757915288369 | etot = 8.14982063699123
552000  ekin = 3.84056275233412 |  erot = 3.80935459866339 | epot = 0.49990328599462 | etot = 8.14982063699213
553000  ekin = 3.84468655399472 |  erot = 3.80350692047795 | epot = 0.501627162520499 | etot = 8.14982063699317
554000  ekin = 3.83787332633824 |  erot = 3.76568956980736 | epot = 0.546257680892663 | etot = 8.14982057703826
555000  ekin = 3.81553348851951 |  erot = 3.53250221438342 | epot = 0.801784929942685 | etot = 8.14982063284562
556000  ekin = 4.00089451241584 |  erot = 3.44900286597095 | epot = 0.699923231479602 | etot = 8.14982060986639
557000  ekin = 4.15508435426074 |  erot = 3.48302329338028 | epot = 0.511712969217715 | etot = 8.14982061685874
558000  ekin = 4.16064123328814 |  erot = 3.47441841296038 | epot = 0.514760970611597 | etot = 8.14982061686012
559000  ekin = 4.16603300754083 |  erot = 3.46550607880732 | epot = 0.518281530513468 | etot = 8.14982061686162
560000  ekin = 4.17127187650395 |  erot = 3.45629553410192 | epot = 0.522253206257404 | etot = 8.14982061686328
561000  ekin = 4.17637054727374 |  erot = 3.44679718560705 | epot = 0.526652883984199 | etot = 8.14982061686498
562000  ekin = 4.18134217741863 |  erot = 3.43702258416615 | epot = 0.531455855281991 | etot = 8.14982061686677
563000  ekin = 4.18620031325546 |  erot = 3.4269843986212 | epot = 0.536635904992044 | etot = 8.1498206168687
564000  ekin = 4.1909588234456 |  erot = 3.4166963825188 | epot = 0.54216541090632 | etot = 8.14982061687072
565000  ekin = 4.19563182791562 |  erot = 3.40617333305251 | epot = 0.548015455904656 | etot = 8.14982061687278
566000  ekin = 4.20023362222361 |  erot = 3.39543104179504 | epot = 0.554155952856297 | etot = 8.14982061687495
567000  ekin = 4.20477859762413 |  erot = 3.38448623690667 | epot = 0.560555782346357 | etot = 8.14982061687715
568000  ekin = 4.20928115722855 |  erot = 3.37335651666633 | epot = 0.567182942984522 | etot = 8.14982061687939
569000  ekin = 4.21375562881118 |  erot = 3.36206027435597 | epot = 0.574004713714525 | etot = 8.14982061688167
570000  ekin = 4.21821617496916 |  erot = 3.35061661473433 | epot = 0.580987827180494 | etot = 8.14982061688399
571000  ekin = 4.22267670150152 |  erot = 3.33904526255945 | epot = 0.58809865282534 | etot = 8.14982061688631
572000  ekin = 4.22715076502321 |  erot = 3.32736646385177 | epot = 0.595303388013621 | etot = 8.1498206168886
573000  ekin = 4.23165148096663 |  erot = 3.31560088082675 | epot = 0.602568255097481 | etot = 8.14982061689086
574000  ekin = 4.23619143323889 |  erot = 3.30376948165668 | epot = 0.609859701997541 | etot = 8.14982061689311
575000  ekin = 4.24078258689123 |  erot = 3.29189342643702 | epot = 0.61714460356707 | etot = 8.14982061689532
576000  ekin = 4.24543620520934 |  erot = 3.2799939509239 | epot = 0.624390460764223 | etot = 8.14982061689747
577000  ekin = 4.25016277264572 |  erot = 3.26809224976523 | epot = 0.63156559448855 | etot = 8.1498206168995
578000  ekin = 4.25497192498095 |  erot = 3.25620936105936 | epot = 0.638639330861125 | etot = 8.14982061690144
579000  ekin = 4.25987238801849 |  erot = 3.244366054135 | epot = 0.645582174749829 | etot = 8.14982061690332
580000  ekin = 4.26487192598499 |  erot = 3.23258272244651 | epot = 0.652365968473566 | etot = 8.14982061690507
581000  ekin = 4.26997730062817 |  erot = 3.22087928341777 | epot = 0.658964032860731 | etot = 8.14982061690667
582000  ekin = 4.27519424177894 |  erot = 3.20927508694256 | epot = 0.665351288186694 | etot = 8.1498206169082
583000  ekin = 4.28052742988207 |  erot = 3.19778883406333 | epot = 0.671504352964084 | etot = 8.14982061690948
584000  ekin = 4.28598049070777 |  erot = 3.18643850710796 | epot = 0.677401619095003 | etot = 8.14982061691073
585000  ekin = 4.2915560021458 |  erot = 3.17524131227317 | epot = 0.68302330249287 | etot = 8.14982061691184
586000  ekin = 4.29725551266637 |  erot = 3.16421363531465 | epot = 0.688351468931778 | etot = 8.1498206169128
587000  ekin = 4.30307957072081 |  erot = 3.15337101065088 | epot = 0.69337003554195 | etot = 8.14982061691364
588000  ekin = 4.30902776406153 |  erot = 3.1427281038223 | epot = 0.69806474903049 | etot = 8.14982061691431
589000  ekin = 4.31509876769904 |  erot = 3.13229870688625 | epot = 0.702423142329631 | etot = 8.14982061691492
590000  ekin = 4.32129039899229 |  erot = 3.12209574598361 | epot = 0.70643447193948 | etot = 8.14982061691538
591000  ekin = 4.32759967819732 |  erot = 3.1121312999994 | epot = 0.710089638718994 | etot = 8.14982061691571
592000  ekin = 4.33402289268456 |  erot = 3.10241662896726 | epot = 0.713381095264115 | etot = 8.14982061691594
593000  ekin = 4.34055566297997 |  erot = 3.09296221064651 | epot = 0.71630274328963 | etot = 8.14982061691611
594000  ekin = 4.3471930087914 |  erot = 3.08377778353653 | epot = 0.71884982458822 | etot = 8.14982061691614
595000  ekin = 4.35392941324724 |  erot = 3.0748723944902 | epot = 0.721018809178665 | etot = 8.14982061691611
596000  ekin = 4.36075888369549 |  erot = 3.06625444904715 | epot = 0.722807284173386 | etot = 8.14982061691602
597000  ekin = 4.36767500758166 |  erot = 3.0579317626271 | epot = 0.724213846707142 | etot = 8.1498206169159
598000  ekin = 4.37467100213634 |  erot = 3.04991161079985 | epot = 0.725238003979462 | etot = 8.14982061691565
599000  ekin = 4.38173975684822 |  erot = 3.04220077697512 | epot = 0.725880083092061 | etot = 8.1498206169154
600000  ekin = 4.38887386796678 |  erot = 3.03480559602698 | epot = 0.726141152921351 | etot = 8.14982061691511
601000  ekin = 4.39606566456131 |  erot = 3.02773199257378 | epot = 0.726022959779664 | etot = 8.14982061691475
602000  ekin = 4.4033072259489 |  erot = 3.02098551286945 | epot = 0.725527878096021 | etot = 8.14982061691437
603000  ekin = 4.41059039058597 |  erot = 3.01457134951398 | epot = 0.724658876814102 | etot = 8.14982061691405
604000  ekin = 4.41790675678564 |  erot = 3.00849435845475 | epot = 0.723419501673252 | etot = 8.14982061691365
605000  ekin = 4.42524767587128 |  erot = 3.00275906801498 | epot = 0.721813873026939 | etot = 8.1498206169132
606000  ekin = 4.43260423859696 |  erot = 2.99736967994547 | epot = 0.719846698370266 | etot = 8.1498206169127
607000  ekin = 4.43996725585474 |  erot = 2.99233006274367 | epot = 0.717523298313779 | etot = 8.14982061691218
608000  ekin = 4.44732723484067 |  erot = 2.98764373771308 | epot = 0.714849644357863 | etot = 8.14982061691161
609000  ekin = 4.45467435196543 |  erot = 2.98331385844334 | epot = 0.711832406502225 | etot = 8.149820616911
610000  ekin = 4.46199842386854 |  erot = 2.97934318456913 | epot = 0.708479008472673 | etot = 8.14982061691035
611000  ekin = 4.46928887792648 |  erot = 2.97573405081535 | epot = 0.704797688167859 | etot = 8.14982061690969
612000  ekin = 4.47653472363669 |  erot = 2.97248833244994 | epot = 0.700797560822338 | etot = 8.14982061690897
613000  ekin = 4.48372452621114 |  erot = 2.96960740834633 | epot = 0.696488682350723 | etot = 8.14982061690819
614000  ekin = 4.49084638362875 |  erot = 2.96709212290137 | epot = 0.691882110377208 | etot = 8.14982061690733
615000  ekin = 4.49788790827856 |  erot = 2.96494274806389 | epot = 0.68698996056398 | etot = 8.14982061690643
616000  ekin = 4.50483621417957 |  erot = 2.96315894670312 | epot = 0.681825456022785 | etot = 8.14982061690548
617000  ekin = 4.51167791059339 |  erot = 2.96173973848879 | epot = 0.676402967822251 | etot = 8.14982061690443
618000  ekin = 4.5183991026586 |  erot = 2.96068346936679 | epot = 0.670738044877969 | etot = 8.14982061690335
619000  ekin = 4.52498539947579 |  erot = 2.9599877856008 | epot = 0.664847431825621 | etot = 8.14982061690221
620000  ekin = 4.53142192986778 |  erot = 2.95964961321496 | epot = 0.658749073818245 | etot = 8.14982061690098
621000  ekin = 4.53769336583445 |  erot = 2.9596651435194 | epot = 0.652462107545816 | etot = 8.14982061689967
622000  ekin = 4.54378395352418 |  erot = 2.96002982523641 | epot = 0.646006838137742 | etot = 8.14982061689833
623000  ekin = 4.54967755135806 |  erot = 2.96073836357265 | epot = 0.639404701966192 | etot = 8.14982061689689
624000  ekin = 4.55535767477444 |  erot = 2.96178472641092 | epot = 0.632678215710022 | etot = 8.14982061689538
625000  ekin = 4.56080754691516 |  erot = 2.96316215762498 | epot = 0.625850912353677 | etot = 8.14982061689382
626000  ekin = 4.56601015445131 |  erot = 2.96486319736095 | epot = 0.618947265079925 | etot = 8.14982061689218
627000  ekin = 4.57094830765284 |  erot = 2.96687970898081 | epot = 0.611992600256876 | etot = 8.14982061689053
628000  ekin = 4.57560470373802 |  erot = 2.96920291223269 | epot = 0.605013000918072 | etot = 8.14982061688878
629000  ekin = 4.57996199250164 |  erot = 2.97182342210037 | epot = 0.598035202285031 | etot = 8.14982061688704
630000  ekin = 4.58400284321003 |  erot = 2.97473129269421 | epot = 0.591086480981045 | etot = 8.14982061688528
631000  ekin = 4.58771001176712 |  erot = 2.97791606547752 | epot = 0.584194539638878 | etot = 8.14982061688352
632000  ekin = 4.59106640719599 |  erot = 2.98136682107758 | epot = 0.577387388608188 | etot = 8.14982061688176
633000  ekin = 4.59405515654144 |  erot = 2.9850722339072 | epot = 0.57069322643136 | etot = 8.14982061688
634000  ekin = 4.59665966737804 |  erot = 2.98902062882192 | epot = 0.56414032067828 | etot = 8.14982061687824
635000  ekin = 4.59886368720177 |  erot = 2.99320003905509 | epot = 0.557756890619632 | etot = 8.1498206168765
636000  ekin = 4.60065135908702 |  erot = 2.99759826470898 | epot = 0.551570993078768 | etot = 8.14982061687477
637000  ekin = 4.60200727310169 |  erot = 3.0022029311295 | epot = 0.545610412641863 | etot = 8.14982061687305
638000  ekin = 4.6029165130879 |  erot = 3.00700154655428 | epot = 0.539902557229207 | etot = 8.14982061687138
639000  ekin = 4.60336469853066 |  erot = 3.01198155849439 | epot = 0.534474359844687 | etot = 8.14982061686974
640000  ekin = 4.60333802134968 |  erot = 3.0171304083878 | epot = 0.52935218713066 | etot = 8.14982061686814
641000  ekin = 4.6028232775576 |  erot = 3.02243558414293 | epot = 0.524561755166052 | etot = 8.14982061686659
642000  ekin = 4.60180789382946 |  erot = 3.02788467027298 | epot = 0.520128052762642 | etot = 8.14982061686508
643000  ekin = 4.60027994912144 |  erot = 3.03346539540251 | epot = 0.516075272339636 | etot = 8.14982061686359
644000  ekin = 4.59822819156153 |  erot = 3.03916567700576 | epot = 0.512426748294883 | etot = 8.14982061686217
645000  ekin = 4.59564205090875 |  erot = 3.04497366330939 | epot = 0.509204902642678 | etot = 8.14982061686082
646000  ekin = 4.59251164694217 |  erot = 3.05087777236013 | epot = 0.506431197557228 | etot = 8.14982061685953
647000  ekin = 4.58882779419486 |  erot = 3.05686672831875 | epot = 0.504126094344685 | etot = 8.14982061685829
648000  ekin = 4.58458200349217 |  erot = 3.0629295950952 | epot = 0.502309018269728 | etot = 8.1498206168571
649000  ekin = 4.5797664807885 |  erot = 3.06905580748606 | epot = 0.500998328581442 | etot = 8.149820616856
650000  ekin = 4.57437412382246 |  erot = 3.07523520001347 | epot = 0.500211293019027 | etot = 8.14982061685496
651000  ekin = 4.56839851712856 |  erot = 3.0814580336961 | epot = 0.499964066029329 | etot = 8.14982061685399
652000  ekin = 4.56183392595379 |  erot = 3.0877150210057 | epot = 0.500271669893583 | etot = 8.14982061685308
653000  ekin = 4.5546752896323 |  erot = 3.09399734928032 | epot = 0.501147977939605 | etot = 8.14982061685222
654000  ekin = 4.54691821496991 |  erot = 3.10029670287582 | epot = 0.502605699005698 | etot = 8.14982061685143
655000  ekin = 4.53855897018485 |  erot = 3.10660528434259 | epot = 0.504656362323246 | etot = 8.14982061685068
656000  ekin = 4.52959447994179 |  erot = 3.1129158349149 | epot = 0.507310301993349 | etot = 8.14982061685004
657000  ekin = 4.52002232200418 |  erot = 3.11922165459673 | epot = 0.510576640248526 | etot = 8.14982061684944
658000  ekin = 4.50984072601564 |  erot = 3.12551662212015 | epot = 0.514463268713145 | etot = 8.14982061684894
659000  ekin = 4.49904857490532 |  erot = 3.1317952150429 | epot = 0.51897682690025 | etot = 8.14982061684847
660000  ekin = 4.48764540939543 |  erot = 3.13805253023818 | epot = 0.524122677214458 | etot = 8.14982061684807
661000  ekin = 4.47563143607162 |  erot = 3.14428430501558 | epot = 0.529904875760552 | etot = 8.14982061684775
662000  ekin = 4.46300753945916 |  erot = 3.15048693909491 | epot = 0.536326138293436 | etot = 8.1498206168475
663000  ekin = 4.44977529852959 |  erot = 3.15665751763648 | epot = 0.543387800681234 | etot = 8.1498206168473
664000  ekin = 4.43593700804359 |  erot = 3.16279383551119 | epot = 0.551089773292446 | etot = 8.14982061684722
665000  ekin = 4.42149570511597 |  erot = 3.16889442297139 | epot = 0.559430488759834 | etot = 8.1498206168472
666000  ekin = 4.40645520136806 |  erot = 3.17495857285861 | epot = 0.568406842620626 | etot = 8.14982061684729
667000  ekin = 4.39082012100729 |  erot = 3.18098636945652 | epot = 0.578014126383698 | etot = 8.14982061684751
668000  ekin = 4.37459594514763 |  erot = 3.18697871906523 | epot = 0.588245952634944 | etot = 8.1498206168478
669000  ekin = 4.35778906264963 |  erot = 3.19293738233541 | epot = 0.599094171863099 | etot = 8.14982061684814
670000  ekin = 4.34040682771855 |  erot = 3.1988650083576 | epot = 0.610548780772455 | etot = 8.14982061684861
671000  ekin = 4.32245762444734 |  erot = 3.20476517044869 | epot = 0.622597821953172 | etot = 8.1498206168492
672000  ekin = 4.30395093842676 |  erot = 3.2106424035163 | epot = 0.635227274906859 | etot = 8.14982061684992
673000  ekin = 4.28489743546377 |  erot = 3.21650224280627 | epot = 0.648420938580708 | etot = 8.14982061685074
674000  ekin = 4.26530904734696 |  erot = 3.22235126374978 | epot = 0.66216030575498 | etot = 8.14982061685172
[...]
834000  ekin = 3.06779108701068 |  erot = 4.33645742750695 | epot = 0.745572092874625 | etot = 8.14982060739226
835000  ekin = 3.03758695402614 |  erot = 4.32852116355989 | epot = 0.783712492887844 | etot = 8.14982061047388
836000  ekin = 3.04801536862446 |  erot = 4.33922044028523 | epot = 0.762584799714819 | etot = 8.14982060862451
837000  ekin = 3.08287003306348 |  erot = 4.35864125471934 | epot = 0.708309316317127 | etot = 8.14982060409995
838000  ekin = 3.09863352211603 |  erot = 4.36630845644952 | epot = 0.684878631677822 | etot = 8.14982061024337
839000  ekin = 3.09846901551138 |  erot = 4.36526692305277 | epot = 0.686084671677685 | etot = 8.14982061024184
840000  ekin = 3.09833739995157 |  erot = 4.36398760317393 | epot = 0.687495607114849 | etot = 8.14982061024036
841000  ekin = 3.09823489746415 |  erot = 4.36245850332282 | epot = 0.689127209451984 | etot = 8.14982061023895
842000  ekin = 3.09815794801455 |  erot = 4.36066837741173 | epot = 0.690994284811356 | etot = 8.14982061023764
843000  ekin = 3.09810322975348 |  erot = 4.35860678011933 | epot = 0.693110600363576 | etot = 8.14982061023638
844000  ekin = 3.09806767608314 |  erot = 4.35626411334754 | epot = 0.69548882080454 | etot = 8.14982061023522
845000  ekin = 3.09804848954948 |  erot = 4.35363166556978 | epot = 0.6981404551149 | etot = 8.14982061023415
846000  ekin = 3.08798392331512 |  erot = 4.26836503494102 | epot = 0.793471650655066 | etot = 8.14982060891121
847000  ekin = 3.15180365131412 |  erot = 4.01095978935297 | epot = 0.987057210456884 | etot = 8.14982065112398
848000  ekin = 3.40100070727743 |  erot = 3.93849373622926 | epot = 0.810326168281266 | etot = 8.14982061178795
849000  ekin = 3.49309696988337 |  erot = 3.95093864925952 | epot = 0.705784978502172 | etot = 8.14982059764506
850000  ekin = 3.49204162870822 |  erot = 3.95080400067133 | epot = 0.706974968264507 | etot = 8.14982059764406
851000  ekin = 3.4908533789957 |  erot = 3.95046320548913 | epot = 0.708504013158315 | etot = 8.14982059764314
852000  ekin = 3.48952893830712 |  erot = 3.94990986292973 | epot = 0.710381796405457 | etot = 8.14982059764231
853000  ekin = 3.48806535549101 |  erot = 3.94913852952268 | epot = 0.712616712627875 | etot = 8.14982059764157
854000  ekin = 3.48646001703658 |  erot = 3.94814471858095 | epot = 0.715215862023438 | etot = 8.14982059764097
855000  ekin = 3.48471065237163 |  erot = 3.9469248945071 | epot = 0.718185050761693 | etot = 8.14982059764042
856000  ekin = 3.48281533832385 |  erot = 3.94547646228927 | epot = 0.721528797026881 | etot = 8.14982059764
857000  ekin = 3.48077250296029 |  erot = 3.943797752559 | epot = 0.725250342120341 | etot = 8.14982059763964
858000  ekin = 3.47858092901186 |  erot = 3.94188800259581 | epot = 0.729351666031704 | etot = 8.14982059763937
859000  ekin = 3.47623975707722 |  erot = 3.93974733366945 | epot = 0.733833506892506 | etot = 8.14982059763919
860000  ekin = 3.47374848878521 |  erot = 3.93737672511297 | epot = 0.738695383740927 | etot = 8.1498205976391
861000  ekin = 3.47110699007573 |  erot = 3.93477798551562 | epot = 0.743935622047783 | etot = 8.14982059763913
862000  ekin = 3.46831549473783 |  erot = 3.93195372141803 | epot = 0.749551381483403 | etot = 8.14982059763926
863000  ekin = 3.46537460831884 |  erot = 3.9289073038797 | epot = 0.755538685440858 | etot = 8.1498205976394
864000  ekin = 3.46228531249221 |  erot = 3.92564283327457 | epot = 0.761892451872867 | etot = 8.14982059763965
865000  ekin = 3.45904896994295 |  erot = 3.92216510265145 | epot = 0.768606525045532 | etot = 8.14982059763993
866000  ekin = 3.45566732980004 |  erot = 3.9184795599756 | epot = 0.775673707864703 | etot = 8.14982059764034
867000  ekin = 3.45214253361341 |  erot = 3.91459226954424 | epot = 0.783085794483178 | etot = 8.14982059764083
868000  ekin = 3.44847712184227 |  erot = 3.91050987284314 | epot = 0.790833602955979 | etot = 8.14982059764139
869000  ekin = 3.44467404078913 |  erot = 3.90623954908477 | epot = 0.798907007768099 | etot = 8.149820597642
870000  ekin = 3.44073664988293 |  erot = 3.90178897564035 | epot = 0.807294972119347 | etot = 8.14982059764262
871000  ekin = 3.43666872918421 |  erot = 3.89716628854967 | epot = 0.815985579909454 | etot = 8.14982059764334
872000  ekin = 3.43247448695668 |  erot = 3.89238004326385 | epot = 0.824966067423567 | etot = 8.14982059764409
873000  ekin = 3.42815856712307 |  erot = 3.8874391757485 | epot = 0.834222854773377 | etot = 8.14982059764495
874000  ekin = 3.42372605639996 |  erot = 3.88235296404783 | epot = 0.843741577198042 | etot = 8.14982059764583
875000  ekin = 3.41918249088611 |  erot = 3.87713099038561 | epot = 0.85350711637505 | etot = 8.14982059764677
876000  ekin = 3.41453386186379 |  erot = 3.87178310385633 | epot = 0.863503631927596 | etot = 8.14982059764771
877000  ekin = 3.40978662056157 |  erot = 3.86631938374106 | epot = 0.873714593346077 | etot = 8.14982059764871
878000  ekin = 3.40494768162229 |  erot = 3.8607501034674 | epot = 0.884122812560079 | etot = 8.14982059764978
879000  ekin = 3.40002442502076 |  erot = 3.85508569522162 | epot = 0.894710477408521 | etot = 8.14982059765091
880000  ekin = 3.39502469618311 |  erot = 3.84933671521569 | epot = 0.905459186253265 | etot = 8.14982059765207
881000  ekin = 3.389956804074 |  erot = 3.84351380961085 | epot = 0.916349983968385 | etot = 8.14982059765323
882000  ekin = 3.38482951703863 |  erot = 3.83762768110453 | epot = 0.927363399511306 | etot = 8.14982059765446
883000  ekin = 3.3796520562145 |  erot = 3.83168905619741 | epot = 0.938479485243795 | etot = 8.1498205976557
884000  ekin = 3.374434086362 |  erot = 3.82570865317329 | epot = 0.949677858121668 | etot = 8.14982059765696
885000  ekin = 3.36918570400325 |  erot = 3.81969715084489 | epot = 0.960937742810107 | etot = 8.14982059765825
886000  ekin = 3.36391742280403 |  erot = 3.81366515814321 | epot = 0.972238016712344 | etot = 8.14982059765959
887000  ekin = 3.35864015618341 |  erot = 3.80762318465581 | epot = 0.983557256821725 | etot = 8.14982059766094
888000  ekin = 3.3533651971876 |  erot = 3.80158161224865 | epot = 0.994873788226079 | etot = 8.14982059766232
889000  ekin = 3.34810419571852 |  erot = 3.79555066793567 | epot = 1.0061657340095 | etot = 8.14982059766369
890000  ekin = 3.34286913325955 |  erot = 3.7895403981877 | epot = 1.01741106621783 | etot = 8.14982059766508
891000  ekin = 3.33767229529074 |  erot = 3.78356064489524 | epot = 1.02858765748051 | etot = 8.14982059766649
892000  ekin = 3.3325262416297 |  erot = 3.77762102321727 | epot = 1.03967333282093 | etot = 8.14982059766791
893000  ekin = 3.32744377497041 |  erot = 3.77173090155499 | epot = 1.05064592114393 | etot = 8.14982059766933
894000  ekin = 3.32243790791804 |  erot = 3.76589938388629 | epot = 1.06148330586644 | etot = 8.14982059767076
895000  ekin = 3.31752182883099 |  erot = 3.76013529467839 | epot = 1.07216347416277 | etot = 8.14982059767216
896000  ekin = 3.31270886677943 |  erot = 3.7544471665631 | epot = 1.08266456433102 | etot = 8.14982059767355
897000  ekin = 3.30801245591168 |  erot = 3.74884323090692 | epot = 1.09296491085631 | etot = 8.14982059767491
898000  ekin = 3.3034460994842 |  erot = 3.74333141133962 | epot = 1.1030430868525 | etot = 8.14982059767633
899000  ekin = 3.29902333375831 |  erot = 3.73791932021597 | epot = 1.11287794370338 | etot = 8.14982059767767
900000  ekin = 3.29475769189693 |  erot = 3.73261425788053 | epot = 1.12244864790155 | etot = 8.14982059767901
901000  ekin = 3.29066266791058 |  erot = 3.72742321448429 | epot = 1.1317347152855 | etot = 8.14982059768037
902000  ekin = 3.28675168060662 |  erot = 3.72235287396993 | epot = 1.14071604310511 | etot = 8.14982059768166
903000  ekin = 3.28303803739312 |  erot = 3.71740961970372 | epot = 1.14937294058606 | etot = 8.14982059768291
904000  ekin = 3.27953489768555 |  erot = 3.71259954109249 | epot = 1.15768615890611 | etot = 8.14982059768415
905000  ekin = 3.27625523556726 |  erot = 3.70792844039152 | epot = 1.16563692172658 | etot = 8.14982059768536
906000  ekin = 3.2732118012711 |  erot = 3.70340183879323 | epot = 1.1732069576222 | etot = 8.14982059768653
907000  ekin = 3.27041708098845 |  erot = 3.69902498079288 | epot = 1.18037853590635 | etot = 8.14982059768768
908000  ekin = 3.2678832544808 |  erot = 3.69480283577079 | epot = 1.1871345074372 | etot = 8.14982059768879
909000  ekin = 3.26562214997796 |  erot = 3.69074009571361 | epot = 1.19345835199833 | etot = 8.1498205976899
910000  ekin = 3.26364519589953 |  erot = 3.68684116803389 | epot = 1.19933423375752 | etot = 8.14982059769093
911000  ekin = 3.26196336904138 |  erot = 3.68311016253929 | epot = 1.20474706611123 | etot = 8.14982059769189
912000  ekin = 3.2605871390253 |  erot = 3.67955087175691 | epot = 1.20968258691059 | etot = 8.1498205976928
913000  ekin = 3.25952640902006 |  erot = 3.67616674403432 | epot = 1.21412744463932 | etot = 8.1498205976937
914000  ekin = 3.25879045299896 |  erot = 3.67296084911378 | epot = 1.21806929558174 | etot = 8.14982059769447
915000  ekin = 3.25838785009649 |  erot = 3.66993583620482 | epot = 1.22149691139385 | etot = 8.14982059769516
916000  ekin = 3.25832641695017 |  erot = 3.66709388494853 | epot = 1.22440029579706 | etot = 8.14982059769576
917000  ekin = 3.25861313924847 |  erot = 3.6644366500636 | epot = 1.22677080838421 | etot = 8.14982059769628
918000  ekin = 3.25925410403126 |  erot = 3.66196520086737 | epot = 1.22860129279808 | etot = 8.14982059769671
919000  ekin = 3.26025443458483 |  erot = 3.65967995725487 | epot = 1.22988620585732 | etot = 8.14982059769702
920000  ekin = 3.26161823001418 |  erot = 3.65758062407202 | epot = 1.23062174361097 | etot = 8.14982059769717
921000  ekin = 3.26334851174361 |  erot = 3.65566612611174 | epot = 1.2308059598419 | etot = 8.14982059769724
922000  ekin = 3.26544717926688 |  erot = 3.65393454617315 | epot = 1.23043887225715 | etot = 8.14982059769717
923000  ekin = 3.26791497743183 |  erot = 3.65238306873491 | epot = 1.22952255153022 | etot = 8.14982059769697
924000  ekin = 3.27075147738664 |  erot = 3.65100793179061 | epot = 1.22806118851937 | etot = 8.14982059769662
925000  ekin = 3.27395507303745 |  erot = 3.6498043892707 | epot = 1.22606113538796 | etot = 8.14982059769611
926000  ekin = 3.27752299447349 |  erot = 3.64876668623111 | epot = 1.22353091699086 | etot = 8.14982059769546
927000  ekin = 3.28145133932068 |  erot = 3.64788804863119 | epot = 1.2204812097428 | etot = 8.14982059769467
928000  ekin = 3.28573512240974 |  erot = 3.64716068906937 | epot = 1.21692478621465 | etot = 8.14982059769377
929000  ekin = 3.29036834351635 |  erot = 3.64657582931486 | epot = 1.21287642486152 | etot = 8.14982059769273
930000  ekin = 3.29534407228168 |  erot = 3.64612373989616 | epot = 1.20835278551375 | etot = 8.14982059769159
931000  ekin = 3.30065454878565 |  erot = 3.64579379641197 | epot = 1.20337225249276 | etot = 8.14982059769038
932000  ekin = 3.30629129765515 |  erot = 3.64557455164828 | epot = 1.19795474838563 | etot = 8.14982059768907
933000  ekin = 3.31224525307733 |  erot = 3.64545382204908 | epot = 1.19212152256125 | etot = 8.14982059768766
934000  ekin = 3.31850689167848 |  erot = 3.64541878662139 | epot = 1.18589491938637 | etot = 8.14982059768624
935000  ekin = 3.32506636994263 |  erot = 3.64545609598154 | epot = 1.17929813176057 | etot = 8.14982059768474
936000  ekin = 3.33191366269079 |  erot = 3.64555198898351 | epot = 1.17235494600892 | etot = 8.14982059768322
937000  ekin = 3.33903869912656 |  erot = 3.645692414218 | epot = 1.16508948433717 | etot = 8.14982059768173
938000  ekin = 3.34643149307213 |  erot = 3.64586315363603 | epot = 1.1575259509721 | etot = 8.14982059768027
939000  ekin = 3.34488230540585 |  erot = 3.63589242702608 | epot = 1.16904586032163 | etot = 8.14982059275357
940000  ekin = 3.34191018315076 |  erot = 3.61808682178137 | epot = 1.18982359409214 | etot = 8.14982059902427
941000  ekin = 3.37210168281768 |  erot = 3.62870753882618 | epot = 1.14901137008658 | etot = 8.14982059173044
942000  ekin = 3.38915969165059 |  erot = 3.63408386825471 | epot = 1.12657703900258 | etot = 8.14982059890787
943000  ekin = 3.39752252277327 |  erot = 3.63359295800028 | epot = 1.11870511813328 | etot = 8.14982059890683
944000  ekin = 3.40610919314614 |  erot = 3.63307833207523 | epot = 1.11063307368446 | etot = 8.14982059890583
945000  ekin = 3.41491385027845 |  erot = 3.63252816250476 | epot = 1.1023785861217 | etot = 8.1498205989049
946000  ekin = 3.42393122302675 |  erot = 3.63193114724498 | epot = 1.09395822863235 | etot = 8.14982059890409
947000  ekin = 3.43315661029665 |  erot = 3.63127656715986 | epot = 1.08538742144682 | etot = 8.14982059890333
948000  ekin = 3.44258585344837 |  erot = 3.63055433214847 | epot = 1.07668041330586 | etot = 8.1498205989027
949000  ekin = 3.45221529390628 |  erot = 3.62975501689207 | epot = 1.06785028810379 | etot = 8.14982059890214
950000  ekin = 3.46204171776072 |  erot = 3.62886988690063 | epot = 1.05890899424029 | etot = 8.14982059890164
951000  ekin = 3.47206228936668 |  erot = 3.62789091569562 | epot = 1.04986739383895 | etot = 8.14982059890125
952000  ekin = 3.48227447608974 |  erot = 3.62681079407158 | epot = 1.04073532873959 | etot = 8.14982059890091
953000  ekin = 3.49267596642589 |  erot = 3.62562293243707 | epot = 1.03152170003772 | etot = 8.14982059890068
954000  ekin = 3.50326458373331 |  erot = 3.62432145724908 | epot = 1.02223455791804 | etot = 8.14982059890043
955000  ekin = 3.51403819776649 |  erot = 3.62290120253155 | epot = 1.01288119860226 | etot = 8.14982059890031
956000  ekin = 3.52499463610173 |  erot = 3.62135769741341 | epot = 1.00346826538506 | etot = 8.1498205989002
957000  ekin = 3.53613159739727 |  erot = 3.61968715054268 | epot = 0.994001850960099 | etot = 8.14982059890004
958000  ekin = 3.54744656824735 |  erot = 3.61788643213662 | epot = 0.984487598515981 | etot = 8.14982059889995
959000  ekin = 3.55893674517718 |  erot = 3.61595305432153 | epot = 0.974930799401155 | etot = 8.14982059889986
960000  ekin = 3.57059896309191 |  erot = 3.61388515030422 | epot = 0.965336485503653 | etot = 8.14982059889978
961000  ekin = 3.58242963124754 |  erot = 3.6116814528074 | epot = 0.955709514844911 | etot = 8.14982059889985
962000  ekin = 3.59442467756045 |  erot = 3.60934127209703 | epot = 0.946054649242421 | etot = 8.1498205988999
963000  ekin = 3.60657950182486 |  erot = 3.60686447383398 | epot = 0.936376623241029 | etot = 8.14982059889986
964000  ekin = 3.61888893816853 |  erot = 3.60425145690019 | epot = 0.926680203831153 | etot = 8.14982059889988
965000  ekin = 3.63134722685299 |  erot = 3.60150313127958 | epot = 0.916970240767343 | etot = 8.14982059889991
966000  ekin = 3.64394799531995 |  erot = 3.59862089601937 | epot = 0.907251707560575 | etot = 8.1498205988999
967000  ekin = 3.65668424820471 |  erot = 3.59560661725791 | epot = 0.897529733437313 | etot = 8.14982059889993
968000  ekin = 3.66954836588063 |  erot = 3.59246260627841 | epot = 0.887809626740821 | etot = 8.14982059889986
969000  ekin = 3.68253211097089 |  erot = 3.58919159753533 | epot = 0.878096890393677 | etot = 8.1498205988999
970000  ekin = 3.69562664216266 |  erot = 3.58579672659748 | epot = 0.868397230139681 | etot = 8.14982059889983
971000  ekin = 3.70882253458447 |  erot = 3.58228150795926 | epot = 0.858716556356035 | etot = 8.14982059889976
972000  ekin = 3.7221098059602 |  erot = 3.57864981268534 | epot = 0.849060980254181 | etot = 8.14982059889973
973000  ekin = 3.73547794772883 |  erot = 3.57490584587307 | epot = 0.839436805297689 | etot = 8.14982059889959
974000  ekin = 3.74891596031665 |  erot = 3.57105412393887 | epot = 0.829850514644011 | etot = 8.14982059889953
975000  ekin = 3.76241239176528 |  erot = 3.56709945175742 | epot = 0.820308755376807 | etot = 8.14982059889951
976000  ekin = 3.77595537895036 |  erot = 3.56304689970497 | epot = 0.810818320244119 | etot = 8.14982059889945
977000  ekin = 3.7895326906708 |  erot = 3.55890178067793 | epot = 0.801386127550597 | etot = 8.14982059889933
978000  ekin = 3.80313177194271 |  erot = 3.55466962717529 | epot = 0.792019199781245 | etot = 8.14982059889924
979000  ekin = 3.81673978889265 |  erot = 3.55035616854617 | epot = 0.782724641460302 | etot = 8.14982059889913
980000  ekin = 3.83034367371062 |  erot = 3.54596730851333 | epot = 0.773509616675092 | etot = 8.14982059889904
981000  ekin = 3.84393016918911 |  erot = 3.5415091030875 | epot = 0.764381326622368 | etot = 8.14982059889898
982000  ekin = 3.85748587244179 |  erot = 3.53698773898782 | epot = 0.755346987469305 | etot = 8.14982059889891
983000  ekin = 3.87099727745948 |  erot = 3.53240951267954 | epot = 0.746413808759692 | etot = 8.14982059889871
984000  ekin = 3.88445081622253 |  erot = 3.52778081013273 | epot = 0.737588972543325 | etot = 8.14982059889858
985000  ekin = 3.897832898146 |  erot = 3.5231080873949 | epot = 0.728879613357592 | etot = 8.1498205988985
986000  ekin = 3.91112994768595 |  erot = 3.51839785205753 | epot = 0.720292799154854 | etot = 8.14982059889834
987000  ekin = 3.92432843998245 |  erot = 3.51365664568123 | epot = 0.711835513234556 | etot = 8.14982059889823
988000  ekin = 3.93741493445607 |  erot = 3.50889102722881 | epot = 0.70351463721323 | etot = 8.14982059889812
989000  ekin = 3.95037610631105 |  erot = 3.50410755753842 | epot = 0.69533693504854 | etot = 8.14982059889801
990000  ekin = 3.96319877592913 |  erot = 3.49931278485304 | epot = 0.687309038115793 | etot = 8.14982059889796
991000  ekin = 3.97586993616387 |  erot = 3.49451323140673 | epot = 0.679437431327238 | etot = 8.14982059889783
992000  ekin = 3.98837677756704 |  erot = 3.48971538105336 | epot = 0.671728440277317 | etot = 8.14982059889772
993000  ekin = 4.00070671159595 |  erot = 3.48492566791086 | epot = 0.664188219390851 | etot = 8.14982059889767
994000  ekin = 4.01284739186432 |  erot = 3.48015046598195 | epot = 0.656822741051291 | etot = 8.14982059889756
995000  ekin = 4.02478673351029 |  erot = 3.47539607970398 | epot = 0.649637785683181 | etot = 8.14982059889745
996000  ekin = 4.03651293076296 |  erot = 3.47066873537238 | epot = 0.642638932762082 | etot = 8.14982059889742
997000  ekin = 4.04801447279492 |  erot = 3.46597457337729 | epot = 0.635831552725145 | etot = 8.14982059889735
998000  ekin = 4.0592801579521 |  erot = 3.46131964119048 | epot = 0.629220799754722 | etot = 8.1498205988973
999000  ekin = 4.07029910645499 |  erot = 3.45670988703785 | epot = 0.622811605404479 | etot = 8.14982059889732
1000000  ekin = 4.08106077166668 |  erot = 3.45215115419433 | epot = 0.616608673036239 | etot = 8.14982059889724
   1000000   0.18138048     0              0.038538042    0.29360434     2.6246834e-05  64000        
Loop time of 447.778 on 2 procs for 1000000 steps with 16 atoms

Performance: 1929.527 tau/day, 2233.249 timesteps/s, 35.732 katom-step/s
72.4% CPU use with 1 MPI tasks x 2 OpenMP threads

MPI task timing breakdown:
Section |  min time  |  avg time  |  max time  |%varavg| %total
---------------------------------------------------------------
Pair    | 136.11     | 136.11     | 136.11     |   0.0 | 30.40
Bond    | 59.661     | 59.661     | 59.661     |   0.0 | 13.32
Neigh   | 1.0854     | 1.0854     | 1.0854     |   0.0 |  0.24
Comm    | 46.931     | 46.931     | 46.931     |   0.0 | 10.48
Output  | 0.13522    | 0.13522    | 0.13522    |   0.0 |  0.03
Modify  | 135.86     | 135.86     | 135.86     |   0.0 | 30.34
Other   |            | 67.99      |            |       | 15.18

Nlocal:             16 ave          16 max          16 min
Histogram: 1 0 0 0 0 0 0 0 0 0
Nghost:              0 ave           0 max           0 min
Histogram: 1 0 0 0 0 0 0 0 0 0
Neighs:              0 ave           0 max           0 min
Histogram: 1 0 0 0 0 0 0 0 0 0
FullNghs:           66 ave          66 max          66 min
Histogram: 1 0 0 0 0 0 0 0 0 0

Total # of neighbors = 66
Ave neighs/atom = 4.125
Ave special neighs/atom = 3.75
Neighbor list builds = 1000
Dangerous builds = 0

Total wall time: 0:07:28
