LAMMPS data file via write_data, version 19 Nov 2024, timestep = 100000, units = lj

1000 atoms
1 atom types
1000 ellipsoids

0 11.00642416298209 xlo xhi
0 11.00642416298209 ylo yhi
0 11.00642416298209 zlo zhi

Atoms # ellipsoid

5 1 1 5.968310365946075 0.5364416739900207 0.6001481966727091 0.7055706150710988 0 0 0
14 1 1 5.968310365946075 2.5780510442775992 0.0038276321387358024 0.13555656626425508 0 0 0
179 1 1 5.968310365946075 3.8895233250867376 0.14510499151116232 0.08605944143976739 0 1 0
30 1 1 5.968310365946075 8.061994726682915 0.5661937810586386 0.0292240526729705 0 0 0
2 1 1 5.968310365946075 10.501842916725629 0.5994416335311278 0.2164229892684967 -1 0 0
8 1 1 5.968310365946075 1.2309275304390788 1.5461712550975535 0.6167521323243257 0 0 0
11 1 1 5.968310365946075 2.353732744387702 1.2939786378215017 0.4999029128685501 0 0 0
16 1 1 5.968310365946075 3.4575325010102 1.4879112471329325 0.6744122595895446 0 0 0
23 1 1 5.968310365946075 4.966827383982583 1.0648020979757402 0.5272043791690937 0 0 0
33 1 1 5.968310365946075 9.181861029306672 1.0519036261457517 0.28575081791438417 0 0 0
57 1 1 5.968310365946075 4.3797304588026575 2.023359742598748 0.14627293660178284 0 0 0
61 1 1 5.968310365946075 5.4647720714737105 2.144911769117378 0.3864221115942946 0 0 0
31 1 1 5.968310365946075 8.136379241988664 1.778305983288387 0.2379855178412296 0 0 0
39 1 1 5.968310365946075 10.544185682223008 1.96518523165613 0.012161518468816988 0 0 0
78 1 1 5.968310365946075 0.4829021381469434 2.479146425546808 0.42130064771191533 1 0 0
55 1 1 5.968310365946075 3.64041335606942 2.8023942196771663 0.4002950191114164 0 0 0
65 1 1 5.968310365946075 6.645511451649081 2.384271135999826 0.3945423212913596 0 0 0
73 1 1 5.968310365946075 9.649301491059203 2.468673167113238 0.3929013757313394 0 0 0
852 1 1 5.968310365946075 1.5390344599628587 3.3276561446072486 0.25175065728741197 0 0 1
50 1 1 5.968310365946075 2.8014345780249523 3.599925388608757 0.3760407973678203 0 0 0
59 1 1 5.968310365946075 4.898971185384273 3.1579147670123064 0.2552767364594007 0 0 0
63 1 1 5.968310365946075 6.001550109007385 3.347780907858551 0.3115796955203874 0 0 0
109 1 1 5.968310365946075 7.92431577715791 3.4394656229105256 0.34141483575931764 0 0 0
85 1 1 5.968310365946075 1.6155997700828213 4.4394842429610755 0.1967778757759302 0 0 0
90 1 1 5.968310365946075 2.593401612180533 4.645726463454562 0.7770536197256005 0 0 0
97 1 1 5.968310365946075 4.174755922452379 3.996301708946263 0.432868572247637 0 0 0
98 1 1 5.968310365946075 5.2554723858193775 4.107986458957787 0.7833051660734125 0 0 0
68 1 1 5.968310365946075 6.627596350726149 4.235635946048554 0.30089751924048413 0 0 0
914 1 1 5.968310365946075 8.300777427951568 4.48497515372666 0.3614998884880457 0 0 1
80 1 1 5.968310365946075 9.552906343341766 4.439632722302773 0.5348550346029599 0 0 0
43 1 1 5.968310365946075 10.605486490503896 4.16612137972915 0.3614338626985725 -1 0 0
81 1 1 5.968310365946075 0.539138242329956 4.786125699060493 0.261345698517769 0 0 0
100 1 1 5.968310365946075 4.690566412901742 5.177495807151577 0.44848904679835633 0 0 0
102 1 1 5.968310365946075 5.865865155757726 5.1510239127946384 0.5782652048638574 0 0 0
104 1 1 5.968310365946075 7.048498437019716 5.279209048771542 0.48529113415493697 0 0 0
10 1 1 5.968310365946075 1.6467706006414717 0.5332441270251445 1.092940333077023 0 0 0
13 1 1 5.968310365946075 3.1564552815651563 0.24298112794759363 1.0654433685963764 0 0 0
184 1 1 5.968310365946075 5.289513489319376 0.20682369330383538 1.4617386528311844 0 1 0
26 1 1 5.968310365946075 6.495240712496431 0.5319527948964186 0.8068187187362157 0 0 0
229 1 1 5.968310365946075 7.5060680674759785 0.5570933015618643 1.3123700910383067 0 0 0
36 1 1 5.968310365946075 8.601252076657131 0.2493998364116166 1.217349547417074 0 0 0
20 1 1 5.968310365946075 4.2123855176485 0.8458261611489115 1.4322050841919698 0 0 0
22 1 1 5.968310365946075 5.973920730378116 1.4653388740021054 1.1513362779001017 0 0 0
28 1 1 5.968310365946075 7.084129761855927 1.4758781744304237 0.9111825395249314 0 0 0
40 1 1 5.968310365946075 8.780647084197309 1.4512484669948198 1.2594866172069805 0 0 0
241 1 1 5.968310365946075 9.961030539186222 1.436464804337105 1.06003035619505 -1 0 0
42 1 1 5.968310365946075 0.06876699848485285 1.6359217142124969 1.0660036249579552 0 0 0
211 1 1 5.968310365946075 2.128421249547759 1.5780009764308895 1.5482322068711565 0 0 0
19 1 1 5.968310365946075 4.654390956249828 2.0589632146833767 1.233649480785634 0 0 0
32 1 1 5.968310365946075 8.125946822659802 2.3554935377287896 1.2640422088647751 0 0 0
46 1 1 5.968310365946075 1.5080096559348972 2.609712437652669 1.1220158693379736 0 0 0
12 1 1 5.968310365946075 2.706467286816304 2.6190045850384323 0.9728392144733111 0 0 0
24 1 1 5.968310365946075 5.7091164683188795 2.758525404006032 1.3600387244434493 0 0 0
74 1 1 5.968310365946075 9.475097807912638 2.530112243740992 1.4644290970285991 0 0 0
277 1 1 5.968310365946075 10.476988579711081 2.5186911525360194 1.1366253639876438 0 0 0
52 1 1 5.968310365946075 0.7052098585044514 3.690210646990508 0.9256746216854735 0 0 0
249 1 1 5.968310365946075 2.1475685314891106 3.557024803705013 1.2971994981162935 0 0 0
293 1 1 5.968310365946075 3.2617241831223676 3.616062738940213 1.4393865701192181 0 0 0
58 1 1 5.968310365946075 4.453484810591765 3.3358052986995124 1.2678773394555662 0 0 0
67 1 1 5.968310365946075 7.035970401885043 3.3343286622385775 0.8857319926146608 0 0 0
70 1 1 5.968310365946075 7.918723773490537 3.390883995694854 1.504594442038135 0 0 0
71 1 1 5.968310365946075 8.853116243604655 3.4407500257589563 0.9409530527799971 0 0 0
279 1 1 5.968310365946075 10.022266464874443 3.500851447644906 1.3705220883156575 0 0 0
44 1 1 5.968310365946075 0.03282854077619766 4.588156814231996 1.3094314219046033 0 0 0
86 1 1 5.968310365946075 1.4792024828528867 4.410639518860452 1.2956580838379343 0 0 0
299 1 1 5.968310365946075 4.225953368411635 4.388263819042457 1.5700540671661938 0 0 0
301 1 1 5.968310365946075 6.230638621152294 4.155265792811856 1.3449209187201876 0 0 0
72 1 1 5.968310365946075 7.3737083511748125 4.459989663173168 1.1712946656611247 0 0 0
76 1 1 5.968310365946075 8.696905907098632 4.385231605284481 1.5084953147084073 0 0 0
92 1 1 5.968310365946075 1.4745416008095664 5.3703958321392316 0.8219275117007343 0 0 0
94 1 1 5.968310365946075 3.655595507442906 4.962695512867308 0.8310438705990113 0 0 0
303 1 1 5.968310365946075 5.301712276408816 5.013833417612325 1.4800354815806807 0 0 0
142 1 1 5.968310365946075 6.3763215862503095 5.409928155224432 1.5351014915054582 0 0 0
110 1 1 5.968310365946075 7.980383239960954 5.396657618868061 1.0419648074842092 0 0 0
113 1 1 5.968310365946075 9.143240118561721 5.4301276812546915 1.0172533089004612 0 0 0
82 1 1 5.968310365946075 10.279576125893866 5.443584634423798 1.236713386375794 -1 0 0
4 1 1 5.968310365946075 0.10796538138700743 0.7519907246900275 1.7944760094948753 0 0 0
207 1 1 5.968310365946075 1.27071659031323 0.5252602307769929 2.1185887630577978 0 0 0
209 1 1 5.968310365946075 2.3399166382635164 0.3176125517391754 1.9392742448467133 0 0 0
216 1 1 5.968310365946075 3.3877468432469087 0.027544077725602634 2.1899198001895908 0 0 0
219 1 1 5.968310365946075 4.5172206221022355 0.21248349929406368 2.289019847941089 0 0 0
395 1 1 5.968310365946075 7.836539580172557 0.22339604945360775 2.3397804270527924 0 1 0
38 1 1 5.968310365946075 9.804463829312628 0.36099722151154023 1.6778105566303452 0 0 0
245 1 1 5.968310365946075 0.9800987193807752 1.5349560138116438 1.717622900630343 0 0 0
215 1 1 5.968310365946075 3.208323651028676 1.1221876188181055 1.7171536982858535 0 0 0
223 1 1 5.968310365946075 5.118523410280848 1.2382107597399565 1.8550205076936266 0 0 0
227 1 1 5.968310365946075 6.614277603841565 0.9066733778916454 1.898378126157635 0 0 0
231 1 1 5.968310365946075 7.791849482828091 1.478069416918197 1.8591914976260673 0 0 0
233 1 1 5.968310365946075 8.701876061275732 1.0006919534604017 2.344818779349857 0 0 0
258 1 1 5.968310365946075 4.1299312338636 1.771415059858306 2.136993853325075 0 0 0
265 1 1 5.968310365946075 6.071428149488099 1.9716657299593863 2.1698109708543525 0 0 0
235 1 1 5.968310365946075 9.576889342242827 1.7216002172879923 2.28753489954114 0 0 0
203 1 1 5.968310365946075 10.80381989511189 1.8181008624048192 2.093404074620261 -1 0 0
243 1 1 5.968310365946075 0.4146591736090698 2.613172534704837 1.5995385910195143 0 0 0
48 1 1 5.968310365946075 1.6107624016881548 2.367153253793869 2.193166105287777 0 0 0
56 1 1 5.968310365946075 2.6681069411318457 2.7842254871062235 2.0890004139994365 0 0 0
54 1 1 5.968310365946075 3.5764991741221683 2.5412576646319684 1.5883340907043015 0 0 0
257 1 1 5.968310365946075 4.9416973949175835 2.684888131116646 2.15018305546865 0 0 0
66 1 1 5.968310365946075 6.944429492654811 2.4303754402777664 1.640434908390992 0 0 0
242 1 1 5.968310365946075 10.524148843254316 2.9902299360258002 2.212398808381548 -1 0 0
281 1 1 5.968310365946075 0.2243578174218851 3.919014639836086 2.2231009222352505 0 0 0
285 1 1 5.968310365946075 1.2316569868888758 3.4388462820534893 1.9522542382676298 0 0 0
60 1 1 5.968310365946075 4.018386420102906 3.4916097211111823 2.2908604898293388 0 0 0
64 1 1 5.968310365946075 5.3145799602173796 3.713514081105921 1.8627935862769651 0 0 0
62 1 1 5.968310365946075 6.944376829864537 3.719104510443318 2.084395643991165 0 0 0
271 1 1 5.968310365946075 8.900602639147571 3.4196449697014715 2.092730985392988 0 0 0
251 1 1 5.968310365946075 2.0473278770479495 4.253929513040943 2.2404185426850898 0 0 0
309 1 1 5.968310365946075 7.985938176427288 4.234044206083123 2.3571190499146644 0 0 0
114 1 1 5.968310365946075 9.800246055796409 4.5243942570045395 1.7531206595844302 0 0 0
287 1 1 5.968310365946075 0.8756940781406007 4.848765568419676 2.0759537037237674 0 0 0
289 1 1 5.968310365946075 1.8662720163900703 5.453755599400421 1.9344893897936903 0 0 0
96 1 1 5.968310365946075 2.913066595648438 4.927388116902746 1.8753595720978202 0 0 0
106 1 1 5.968310365946075 6.972656335798369 4.8176501342749765 2.227586395549544 0 0 0
210 1 1 5.968310365946075 1.6570387479241224 0.35192314247197914 3.125106064434643 0 0 0
221 1 1 5.968310365946075 5.577121400777912 0.41622924882413376 2.5581646049286526 0 0 0
230 1 1 5.968310365946075 6.643264996051196 0.26460216803490855 2.8360696956322933 0 0 0
239 1 1 5.968310365946075 9.596075089061554 0.6506800821635289 2.8068556525734145 0 0 0
246 1 1 5.968310365946075 0.5613445680863189 1.5509522958320325 2.834435775542837 0 0 0
208 1 1 5.968310365946075 1.7044297126477728 1.4201396281143885 2.753383555962701 0 0 0
220 1 1 5.968310365946075 3.733323742396032 0.9437573373284652 2.8337641250767445 0 0 0
224 1 1 5.968310365946075 4.8314886149464185 1.0890416999672587 2.981064010857497 0 0 0
266 1 1 5.968310365946075 6.137593340109194 1.3865994105171446 3.1292571228932577 0 0 0
236 1 1 5.968310365946075 7.5881113434895315 1.0963748685386787 3.0329598976590333 0 0 0
206 1 1 5.968310365946075 10.697419507853505 0.8123101057518171 2.848421869140613 -1 0 0
254 1 1 5.968310365946075 2.889650724217125 1.8040013566459343 2.6044689034397526 0 0 0
262 1 1 5.968310365946075 4.606015620510342 2.2256820423725183 3.130620229631155 0 0 0
270 1 1 5.968310365946075 7.094203450790445 2.0120928350017584 2.7213459387514014 0 0 0
273 1 1 5.968310365946075 8.577978870007076 2.1694930639947785 2.414155385856568 0 0 0
247 1 1 5.968310365946075 0.5466735459528363 3.0090545668450877 2.746136075819887 0 0 0
253 1 1 5.968310365946075 3.4845925929820787 2.771413228808893 2.893137713871756 0 0 0
269 1 1 5.968310365946075 7.786041687781331 2.905603935610925 2.739388149088404 0 0 0
278 1 1 5.968310365946075 9.556905516692058 2.6330365327205025 2.8993915653519804 0 0 0
286 1 1 5.968310365946075 1.9755832582455701 3.3072225154290433 2.825320287409808 0 0 0
255 1 1 5.968310365946075 2.974279258719522 3.8039292009576453 2.6624135599926673 0 0 0
259 1 1 5.968310365946075 4.944740280408188 3.3265901627450734 3.093387269014543 0 0 0
261 1 1 5.968310365946075 6.073862405984445 3.1472878151277848 2.5473395100340777 0 0 0
318 1 1 5.968310365946075 1.1291878070136725 4.040076971344464 3.04055692368718 1 0 0
297 1 1 5.968310365946075 4.940110836476261 4.588812379837423 2.5431524312705687 0 0 0
263 1 1 5.968310365946075 6.1258695670284355 4.297578232938939 2.7126609689064987 0 0 0
313 1 1 5.968310365946075 9.046255358746125 4.580776913919922 2.726819485067933 0 0 0
275 1 1 5.968310365946075 10.19858187809377 3.9535793032063897 2.6944552464004934 0 0 0
288 1 1 5.968310365946075 1.5303110740531187 5.0290824899227395 3.0553104247724017 0 0 0
292 1 1 5.968310365946075 2.718812522928149 4.929480955622922 2.97756254260333 0 0 0
296 1 1 5.968310365946075 3.7325426008997313 4.728773261346728 2.688952058208465 0 0 0
307 1 1 5.968310365946075 5.779188197207197 5.386867262628016 2.519120715100639 0 0 0
312 1 1 5.968310365946075 7.857868480956703 5.046420734456175 3.1253716518639694 0 0 0
319 1 1 5.968310365946075 9.93985545121332 5.410393187614132 2.456725189876336 0 0 0
317 1 1 5.968310365946075 10.975611956496806 5.005062527619211 2.638107385785399 0 0 0
445 1 1 5.968310365946075 0.6689684322650092 0.6714806326009631 3.5218464433831205 0 0 0
228 1 1 5.968310365946075 5.792138030565997 0.4428157748779138 3.6770154442179503 0 0 0
238 1 1 5.968310365946075 8.49698628066976 0.4069100477274918 3.432761272455283 0 0 0
449 1 1 5.968310365946075 1.6010121343836325 1.1901523314619107 3.8971408140285524 0 0 0
212 1 1 5.968310365946075 2.589817668845558 0.9606709450523017 3.4369410035908583 0 0 0
274 1 1 5.968310365946075 8.888086896298056 1.5648356301202169 3.3035486175391338 0 0 0
244 1 1 5.968310365946075 0.09012937864775668 2.137078837144345 3.8840328589494093 0 0 0
248 1 1 5.968310365946075 1.1692867314409414 2.340670512570046 3.4702010844888482 0 0 0
252 1 1 5.968310365946075 2.2554445544297215 2.2945093390834073 3.2966968961292826 0 0 0
453 1 1 5.968310365946075 3.228849773795275 1.9344919024942189 3.722176317086747 0 0 0
461 1 1 5.968310365946075 5.224868228935445 1.6179746543827285 3.851458826140716 0 0 0
469 1 1 5.968310365946075 7.749020653164665 2.0940921744577357 3.6332601541520675 0 0 0
240 1 1 5.968310365946075 10.189228563168536 1.7013939408780794 3.206547849334242 0 0 0
256 1 1 5.968310365946075 2.8322553546868696 3.0481489937800763 3.803025327053838 0 0 0
260 1 1 5.968310365946075 4.084004838542115 2.836674144387951 3.8588993655962534 0 0 0
264 1 1 5.968310365946075 5.754235166621749 2.472852552104419 3.417141117366205 0 0 0
306 1 1 5.968310365946075 6.818317573386733 2.8373340072947415 3.3738581598570665 0 0 0
272 1 1 5.968310365946075 8.612860944699435 2.7550737330862276 3.4266855388877677 0 0 0
280 1 1 5.968310365946075 10.495749718525826 2.9143486266128584 3.2395863813797927 0 0 0
282 1 1 5.968310365946075 0.51540930068089 3.3939553725161704 3.802994973536077 0 0 0
294 1 1 5.968310365946075 3.929109257590074 3.8264734391626583 3.3354711391492393 0 0 0
497 1 1 5.968310365946075 5.933625987405615 3.514479671801375 3.603472527959553 0 0 0
305 1 1 5.968310365946075 7.2498478261194 3.894089691021449 3.1810518228518956 0 0 0
276 1 1 5.968310365946075 9.364948896290795 3.6644989318720906 3.3566775778508178 0 0 0
290 1 1 5.968310365946075 2.3410254673861703 4.062308085092836 3.548273902498825 0 0 0
489 1 1 5.968310365946075 3.3232165609896147 4.599682410987258 3.9144525621386888 0 0 0
310 1 1 5.968310365946075 8.372321245638704 4.018733811448791 3.473710012828246 0 0 0
479 1 1 5.968310365946075 10.5902626726306 4.024195378503378 3.7543404633550748 0 0 0
284 1 1 5.968310365946075 0.5671040427507184 5.005372119996456 3.592187400415167 0 0 0
495 1 1 5.968310365946075 4.3945075040214325 4.854159405558832 3.867909968005559 0 0 0
501 1 1 5.968310365946075 5.475841456805603 4.8309276129614735 3.537653025699253 0 0 0
302 1 1 5.968310365946075 6.789830907124149 4.886130052370256 3.572976071590386 0 0 0
316 1 1 5.968310365946075 8.966668947278079 5.427955188603732 3.466662510077233 0 0 0
314 1 1 5.968310365946075 9.93951345023315 4.893578810907433 3.4660607070744094 0 0 0
411 1 1 5.968310365946075 2.265460190510556 0.17202629504811248 4.214651131659214 0 0 0
222 1 1 5.968310365946075 4.723211244117208 0.611579772770896 3.9407389422773216 0 0 0
434 1 1 5.968310365946075 7.810043303256865 0.20099118356937137 4.567883316350997 0 0 0
202 1 1 5.968310365946075 9.481767732218373 0.6524973984648748 3.9437477316982013 -1 0 0
403 1 1 5.968310365946075 10.932484901156025 0.11768480500565003 4.5957341846601185 -1 0 0
441 1 1 5.968310365946075 0.47312905744586775 1.2578844662455833 4.5179961942898625 0 0 0
454 1 1 5.968310365946075 2.5563851537518536 1.1160029382098142 4.665968726302514 0 0 0
415 1 1 5.968310365946075 3.6049484095371622 0.9223242162926286 3.933015965596767 0 0 0
465 1 1 5.968310365946075 6.0869693075344555 1.2091530544232485 4.649097067090967 0 0 0
232 1 1 5.968310365946075 6.908260009341048 0.8406327498277353 3.9327899006556453 0 0 0
431 1 1 5.968310365946075 7.487669901182798 1.468888078311439 4.672200843449614 0 0 0
435 1 1 5.968310365946075 8.58301468436433 1.1605001401650237 4.452332822379137 0 0 0
204 1 1 5.968310365946075 10.587401652383694 0.9455342135636146 3.9410219175874603 -1 0 0
447 1 1 5.968310365946075 0.9595988452413575 2.2320470317187873 4.661207319103476 0 0 0
250 1 1 5.968310365946075 2.0745697880241702 2.0885000533253106 4.4365057990274 0 0 0
457 1 1 5.968310365946075 4.104832699492282 1.8737603364806972 4.391099229360579 0 0 0
268 1 1 5.968310365946075 6.622884286544503 2.015496895724093 4.1037675825934965 0 0 0
473 1 1 5.968310365946075 8.790182862969772 2.2064756323432904 4.354137557038588 0 0 0
439 1 1 5.968310365946075 9.79539360445414 1.739692528725195 4.2421341911252375 0 0 0
459 1 1 5.968310365946075 5.101406793895872 2.7701001535319705 4.274650237098512 0 0 0
505 1 1 5.968310365946075 6.5574230626978025 3.1026597034624643 4.469213866413128 0 0 0
477 1 1 5.968310365946075 10.06975760391236 2.858097803291179 4.273309605060865 0 0 0
451 1 1 5.968310365946075 1.7690173962865272 3.1698865823744473 4.077978693734446 0 0 0
493 1 1 5.968310365946075 3.353670754619193 3.716568057163314 4.585979891861041 0 0 0
498 1 1 5.968310365946075 4.522487945981443 3.7312368571862504 4.361722381831532 0 0 0
267 1 1 5.968310365946075 7.597741604240177 3.275043116334214 4.107321941839955 0 0 0
475 1 1 5.968310365946075 9.05604521849009 3.4046374625867695 4.3851518593574195 0 0 0
481 1 1 5.968310365946075 0.2674078977677744 4.240544818837374 4.618531388893953 0 0 0
483 1 1 5.968310365946075 1.3376514254109362 4.2460092673029886 4.171135167412594 0 0 0
507 1 1 5.968310365946075 6.091335878552467 4.450009508716259 4.367930580304862 0 0 0
509 1 1 5.968310365946075 7.231205067144203 4.266416812623053 4.4571978035459 0 0 0
513 1 1 5.968310365946075 9.023326701728658 4.492286604475034 4.227639559348313 0 0 0
525 1 1 5.968310365946075 0.9251091332115866 5.195876515237444 4.557189145306065 0 0 0
487 1 1 5.968310365946075 2.0656504365241917 5.071871122293496 3.96998088617852 0 0 0
512 1 1 5.968310365946075 8.011510655369158 5.0900676534508875 4.264852982229653 0 0 0
408 1 1 5.968310365946075 1.6172485288964282 0.5744549902672628 5.065217781951078 0 0 0
416 1 1 5.968310365946075 3.3014154454396354 0.08193559364303825 5.270060209473764 0 0 0
423 1 1 5.968310365946075 5.285081983864852 0.4321401914383991 4.9868353755679635 0 0 0
427 1 1 5.968310365946075 6.9424994339391946 0.7110244550062617 5.224711157309995 0 0 0
433 1 1 5.968310365946075 8.743216650138203 0.09067808665642384 5.315257144224438 0 0 0
437 1 1 5.968310365946075 9.757858259901912 0.425440260097922 5.018186935506839 0 0 0
419 1 1 5.968310365946075 4.179505437069018 0.7933613369013145 4.952438213518153 0 0 0
436 1 1 5.968310365946075 9.439091310946127 1.4750082809922824 5.2823663047626335 0 0 0
478 1 1 5.968310365946075 10.494481644447353 1.4284284523972581 5.095436343896873 0 0 0
649 1 1 5.968310365946075 1.7446297946464855 1.6141230883614979 5.451486933818419 0 0 0
458 1 1 5.968310365946075 5.116757208802844 1.734592171813986 4.991847404359055 0 0 0
467 1 1 5.968310365946075 6.138871078117554 2.266080283371268 5.052452736925387 0 0 0
432 1 1 5.968310365946075 8.369132657024288 1.6155880744638011 5.452143355842124 0 0 0
448 1 1 5.968310365946075 2.2899722873601474 2.6705807666773502 5.4906110031812805 0 0 0
455 1 1 5.968310365946075 3.139408485786324 2.643775703763905 4.794192832898695 0 0 0
456 1 1 5.968310365946075 4.199347616942365 2.890532772185563 4.984418518126164 0 0 0
460 1 1 5.968310365946075 5.268868825150609 2.7543669909566506 5.412286554699723 0 0 0
471 1 1 5.968310365946075 7.968433710064431 2.6546879311784757 4.969025115098085 0 0 0
470 1 1 5.968310365946075 9.004538270598013 2.7960470711480747 5.373932687346441 0 0 0
474 1 1 5.968310365946075 10.18159749203956 2.5394878708642725 5.3553614553465065 0 0 0
443 1 1 5.968310365946075 0.05395800533975988 3.2063196706463755 4.848034109376887 0 0 0
485 1 1 5.968310365946075 1.1795850422127203 3.418097395421481 5.030063412172385 0 0 0
463 1 1 5.968310365946075 5.504782695084101 3.8040009030353423 5.010002553149331 0 0 0
510 1 1 5.968310365946075 7.232626282514155 3.495252286100528 5.28569542058942 0 0 0
518 1 1 5.968310365946075 10.087419971875027 3.6445163123389315 5.123014926034813 0 0 0
452 1 1 5.968310365946075 2.2918127509184387 3.9512219078590887 4.74804377384298 0 0 0
494 1 1 5.968310365946075 3.849740373307981 4.582224787436472 5.02684798484218 0 0 0
506 1 1 5.968310365946075 6.30753863763321 4.523823743679446 5.465283257701411 0 0 0
514 1 1 5.968310365946075 8.144618254798528 3.982463001778799 5.060638491505195 0 0 0
484 1 1 5.968310365946075 0.16443628824005477 5.137620052505851 5.3887204128557435 0 0 0
490 1 1 5.968310365946075 1.7132119721675922 4.882789674022549 5.331217569619579 0 0 0
492 1 1 5.968310365946075 2.84160603177846 5.064973158590858 4.7775814352399015 0 0 0
502 1 1 5.968310365946075 4.954408331173594 4.751199837053163 4.749825172960936 0 0 0
503 1 1 5.968310365946075 5.878151893278737 5.482542719719745 5.120384290585262 0 0 0
545 1 1 5.968310365946075 6.862647688197597 5.294766236386228 4.718575046006257 0 0 0
711 1 1 5.968310365946075 8.725410519526166 5.032904701678254 5.38339973454977 0 0 0
515 1 1 5.968310365946075 9.820466790900396 4.742590761447166 5.020738510653635 0 0 0
412 1 1 5.968310365946075 2.500036348155847 0.6752179790305904 5.735781932193411 0 0 0
418 1 1 5.968310365946075 4.371481313720394 0.050345484847751844 5.795975694302336 0 0 0
438 1 1 5.968310365946075 7.859131323901902 0.4898273586873417 5.880662321245052 0 0 0
440 1 1 5.968310365946075 9.593093943422902 0.08802456247711873 6.101236053690596 0 0 0
404 1 1 5.968310365946075 10.652122174844571 0.29630232300792325 5.670227825615677 -1 0 0
446 1 1 5.968310365946075 0.6415139742729602 1.283183490436776 5.617142347204009 0 0 0
615 1 1 5.968310365946075 3.607093058219396 0.851295183530595 6.006450662516087 0 0 0
422 1 1 5.968310365946075 4.949474334782302 0.9469525823436465 5.939140274777245 0 0 0
424 1 1 5.968310365946075 6.007218817349089 1.3461910423753347 5.844246189039001 0 0 0
677 1 1 5.968310365946075 10.137955008783543 1.4209151414919403 6.1573034764604015 0 0 0
442 1 1 5.968310365946075 0.1409374416877126 2.3142459081312907 5.867409861086494 0 0 0
450 1 1 5.968310365946075 2.9515418606462034 1.6754736538798172 5.511991273606325 0 0 0
420 1 1 5.968310365946075 4.047728909229163 1.811048703881334 5.575900954170372 0 0 0
661 1 1 5.968310365946075 5.2368183315493075 2.0409418082721076 6.240921411249887 0 0 0
466 1 1 5.968310365946075 7.166626168875991 1.9364470345673321 5.7296046324712595 0 0 0
673 1 1 5.968310365946075 9.269871201245651 2.025964759462706 6.24117088017042 0 0 0
647 1 1 5.968310365946075 1.2186733045645466 2.5231623610315674 5.764011384955796 0 0 0
657 1 1 5.968310365946075 4.19747431042708 2.8166812029733888 6.096354073811614 0 0 0
480 1 1 5.968310365946075 9.571541416434982 3.1411678094047955 6.212200176935329 0 0 0
689 1 1 5.968310365946075 1.8786207422525596 3.8389508241965404 5.772411339664814 0 0 0
693 1 1 5.968310365946075 3.3828144317658255 3.543842266283278 5.667944700403504 0 0 0
659 1 1 5.968310365946075 4.531702956012015 3.7556434384500013 5.576844309712206 0 0 0
468 1 1 5.968310365946075 6.230945795843661 3.2158460584829403 5.6758292856638155 0 0 0
476 1 1 5.968310365946075 9.110487576615277 3.917439386661727 5.640888594843486 0 0 0
444 1 1 5.968310365946075 10.64953928836118 3.4115260525396387 6.157937319968639 -1 0 0
486 1 1 5.968310365946075 0.5200063573503373 3.9418116648858255 5.639919652162044 0 0 0
691 1 1 5.968310365946075 2.6905995430692307 4.687977290011894 5.910370530702238 0 0 0
698 1 1 5.968310365946075 3.7415760543197707 4.497415343646225 6.184613949047165 0 0 0
464 1 1 5.968310365946075 5.3035470133735005 4.200123203538059 6.270655607184502 0 0 0
713 1 1 5.968310365946075 8.066823738791676 3.992540365450285 6.238325209071714 0 0 0
520 1 1 5.968310365946075 10.482242105615668 4.522528506895835 5.975280511465051 0 0 0
697 1 1 5.968310365946075 3.5332095161148893 5.486194289030908 5.6431022667230115 0 0 0
703 1 1 5.968310365946075 4.623158254055503 5.003553272386972 5.730632562176553 0 0 0
508 1 1 5.968310365946075 7.451908691522634 4.725261829994048 5.515156742738046 0 0 0
516 1 1 5.968310365946075 9.635324848231365 5.1905947265600325 6.01939606645061 0 0 0
608 1 1 5.968310365946075 0.4778083959605038 0.3824220881549049 6.370196176050586 0 0 0
607 1 1 5.968310365946075 1.565634774438119 0.6701579723175561 6.400170123475333 0 0 0
617 1 1 5.968310365946075 4.560420010828595 0.3028208817899828 6.854756330771707 0 0 0
426 1 1 5.968310365946075 6.4362052408001516 0.3955627500827299 6.30912520119895 0 0 0
631 1 1 5.968310365946075 7.894878514245794 0.6300108833225406 7.042194666625781 0 0 0
603 1 1 5.968310365946075 10.502656980270533 0.6297071951606765 7.038386717043067 -1 0 0
641 1 1 5.968310365946075 0.2228534325249049 1.434877533228856 6.74163416879732 0 0 0
616 1 1 5.968310365946075 2.933786265956989 0.8198137811628035 6.913917217568223 0 0 0
619 1 1 5.968310365946075 4.31165309068001 1.4969353991386696 6.677674115058919 0 0 0
623 1 1 5.968310365946075 5.663743052066564 0.9250237552379447 6.926651037262845 0 0 0
428 1 1 5.968310365946075 6.999403498089557 1.3222943567229102 6.660016436598888 0 0 0
639 1 1 5.968310365946075 8.917155676505297 0.9320135284829636 6.301394326641812 0 0 0
645 1 1 5.968310365946075 1.2226541529937314 1.9812735400939698 6.823275640249938 0 0 0
651 1 1 5.968310365946075 2.2541496642269583 1.6401014930476054 6.42544852132973 0 0 0
653 1 1 5.968310365946075 3.273315279713255 2.1524732983917416 6.441834166097968 0 0 0
670 1 1 5.968310365946075 8.10969930157068 1.8902082822351294 6.468579623578168 0 0 0
648 1 1 5.968310365946075 2.053726765885874 2.95246343278413 6.588919648587671 0 0 0
655 1 1 5.968310365946075 3.369577167194061 3.100967833457724 6.937970411364107 0 0 0
663 1 1 5.968310365946075 5.434627093522352 3.1176298208064406 6.425522930331473 0 0 0
462 1 1 5.968310365946075 6.316789454129423 2.4061282359056175 6.596763801324688 0 0 0
669 1 1 5.968310365946075 8.320562110930222 2.9779210236043148 6.596432475036363 0 0 0
680 1 1 5.968310365946075 10.38723346689667 2.364653414918121 6.710447686670841 0 0 0
643 1 1 5.968310365946075 0.6937278001218886 3.206736510735038 6.559889014601226 0 0 0
660 1 1 5.968310365946075 4.425526037461288 3.662081024248432 6.75862075951383 0 0 0
905 1 1 5.968310365946075 6.279642794569986 3.6311717801132453 6.895492525665699 0 0 0
472 1 1 5.968310365946075 7.197201202921271 3.2238023753983764 6.357154146631001 0 0 0
482 1 1 5.968310365946075 0.12128963303887798 4.158575027159335 6.830913473201118 0 0 0
685 1 1 5.968310365946075 1.436993628412365 4.0091304763815225 6.841272325531763 0 0 0
652 1 1 5.968310365946075 2.776658509184005 4.024897042431233 6.788066445702281 0 0 0
709 1 1 5.968310365946075 7.047350838429479 4.373904022570172 6.506639240242238 0 0 0
717 1 1 5.968310365946075 9.779904558710182 4.362769945879893 6.735993582652224 0 0 0
683 1 1 5.968310365946075 0.733077480990891 5.084175206943814 6.432911050492676 0 0 0
687 1 1 5.968310365946075 1.840198015300163 4.999499379337756 6.51717208287929 0 0 0
699 1 1 5.968310365946075 4.560372817331866 4.747635416139034 6.841955469206608 0 0 0
705 1 1 5.968310365946075 5.972252154778011 5.185968493215961 6.446898211872032 0 0 0
745 1 1 5.968310365946075 7.218297854956572 5.500347633391832 6.8777385499999495 0 0 0
749 1 1 5.968310365946075 8.228636874835574 5.106935523565628 6.41720715657486 0 0 0
719 1 1 5.968310365946075 10.55719366056638 5.313606631772719 6.713311625676045 0 0 0
807 1 1 5.968310365946075 1.0910763568270643 0.5923711847799539 7.3762297517142335 0 0 0
618 1 1 5.968310365946075 3.5902278717631835 0.7497159068657633 7.825850643953864 0 0 0
626 1 1 5.968310365946075 6.792429225244299 0.5031405997762364 7.338975757877287 0 0 0
638 1 1 5.968310365946075 9.43055900463866 0.38326842594956667 7.2669455169867065 0 0 0
604 1 1 5.968310365946075 0.18145600363345335 1.0022600827055723 7.85764153489368 0 0 0
612 1 1 5.968310365946075 2.1795008302057246 0.9140408780677393 7.670497994200495 0 0 0
632 1 1 5.968310365946075 7.726314534165733 1.4874355666969843 7.687678188455465 0 0 0
640 1 1 5.968310365946075 9.939587213530704 1.5111756957048137 7.177075093075022 0 0 0
642 1 1 5.968310365946075 0.3471403725885926 2.346216394580223 7.463629489849811 0 0 0
650 1 1 5.968310365946075 2.5636935444716418 2.15104411835347 7.418773070697911 0 0 0
654 1 1 5.968310365946075 4.012928371828808 1.771898284900804 7.745267223687902 0 0 0
624 1 1 5.968310365946075 5.132323523877135 1.7636073730343653 7.468792500588494 0 0 0
627 1 1 5.968310365946075 6.378236571197273 1.776824553290748 7.53221087801824 0 0 0
678 1 1 5.968310365946075 8.897914646493799 1.7189652325805205 7.420082094521395 0 0 0