LAMMPS (29 Aug 2024 - Development - patch_29Aug2024-409-g5d879678f6-modified)
