LAMMPS data file via write_data, version 2 Aug 2023, timestep = 25000, units = lj

499 atoms
1 atom types
498 bonds
1 bond types
249 ellipsoids

-50 50 xlo xhi
-50 50 ylo yhi
-50 50 zlo zhi

Masses

1 1

Atoms # hybrid/kk

233 1 -16.23871917681599 1.9276599943832133 -18.901098504799453 1 0 238.7324039657 0 0 0
234 1 -15.562465697006289 2.523879633810077 -19.59562252798129 1 0 238.7324039657 0 0 0
235 1 -14.81423100544833 3.122696821735756 -20.109982085811772 1 0 238.7324039657 0 0 0
236 1 -14.07721854640065 3.6904099304543503 -20.276083855513118 1 0 238.7324039657 0 0 0
237 1 -13.049019057398725 4.274682005556272 -20.522240425895767 1 0 238.7324039657 0 0 0
238 1 -12.31746629729029 4.777814552485525 -20.420000580381334 1 0 238.7324039657 0 0 0
239 1 -11.356971225641649 5.480014080073209 -20.275299727147093 1 0 238.7324039657 0 0 0
240 1 -10.535126110625834 6.257139044443699 -20.236023861752187 1 0 238.7324039657 0 0 0
241 1 -9.779243646677184 6.928792899046587 -20.11873769969851 1 0 238.7324039657 0 0 0
242 1 -8.946155508972097 7.782806775324795 -19.738529223430618 1 0 238.7324039657 0 0 0
243 1 -8.37002649816616 8.374000345868568 -19.301087679766315 1 0 238.7324039657 0 0 0
338 1 -16.027169198129368 14.62002169645318 -18.736509476985187 1 1 238.7324039657 0 0 0
336 1 -16.03344336136417 16.593112513283966 -19.407205590069616 1 1 238.7324039657 0 0 0
337 1 -15.988345348304934 15.585308482502354 -19.07496458533371 1 1 238.7324039657 0 0 0
334 1 -15.579784427697867 18.557725512939747 -19.742395743292068 1 1 238.7324039657 0 0 0
335 1 -15.952318031565113 17.58404611851789 -19.694762362819418 1 1 238.7324039657 0 0 0
332 1 -14.507706964184518 20.27267959723977 -19.95406006908707 1 1 238.7324039657 0 0 0
333 1 -15.113657929244237 19.489435889229767 -19.868762050660187 1 1 238.7324039657 0 0 0
331 1 -13.873841652306236 20.915804749580015 -20.232113928993094 1 1 238.7324039657 0 0 0
329 1 -12.828203609326758 22.671817630438696 -20.552132690793876 1 1 238.7324039657 0 0 0
330 1 -13.477439696308991 21.774256619336402 -20.433288887944506 1 1 238.7324039657 0 0 0
327 1 -11.078071484515618 23.192678383259814 -20.66433175944199 1 1 238.7324039657 0 0 0
328 1 -11.98161147390928 23.05263698884138 -20.6763961674653 1 1 238.7324039657 0 0 0
325 1 -9.28475162478766 23.896427911304986 -20.298875671863165 1 1 238.7324039657 0 0 0
326 1 -10.393802614133604 23.65942313216863 -20.262985560977626 1 1 238.7324039657 0 0 0
324 1 -8.438681602356287 24.311516636590063 -20.138016731775483 1 1 238.7324039657 0 0 0
322 1 -6.980074263816534 24.62161737819739 -18.91344556218465 1 1 238.7324039657 0 0 0
323 1 -7.770394440103408 24.42226768818848 -19.377286097430936 1 1 238.7324039657 0 0 0
231 1 -17.28039797901442 0.6498597012148207 -17.4073271420572 1 0 238.7324039657 0 0 0
232 1 -16.74888676935111 1.2532121712690945 -18.1653430250274 1 0 238.7324039657 0 0 0
244 1 -7.9556981740842065 9.091480507440595 -18.663819224287998 1 0 238.7324039657 0 0 0
245 1 -7.641393974386109 9.805647640206512 -17.943126141367856 1 0 238.7324039657 0 0 0
341 1 -16.12222148183384 11.878712027335714 -17.51106455927184 1 1 238.7324039657 0 0 0
342 1 -15.986277627870958 10.997718467520619 -16.92679176074963 1 1 238.7324039657 0 0 0
246 1 -7.427434640222733 10.420122879417946 -17.027979230448654 1 0 238.7324039657 0 0 0
339 1 -16.039019142172332 13.722854236683853 -18.24383522977404 1 1 238.7324039657 0 0 0
340 1 -16.135645041965308 12.823265205006901 -17.794302203337697 1 1 238.7324039657 0 0 0
320 1 -5.518941096542942 24.652229959028684 -17.64371404469008 1 1 238.7324039657 0 0 0
321 1 -6.216323967778346 24.694447811934303 -18.35651961180598 1 1 238.7324039657 0 0 0
319 1 -4.758922801906912 24.567857012489313 -16.946434954148224 1 1 238.7324039657 0 0 0
228 1 -18.870470574965672 -0.9434919591276489 -14.762937016625468 1 0 238.7324039657 0 0 0
229 1 -18.396526734766436 -0.4424579673610249 -15.716539110780326 1 0 238.7324039657 0 0 0
230 1 -17.891494106285172 0.1076397431893272 -16.53006749325609 1 0 238.7324039657 0 0 0
364 1 -27.52362504121774 8.162731368313809 -15.508799710536708 1 1 238.7324039657 0 0 0
362 1 -26.349707198219466 6.700883915561907 -14.813612911793927 1 1 238.7324039657 0 0 0
363 1 -26.618551697309204 7.498059400937794 -15.324887864953078 1 1 238.7324039657 0 0 0
346 1 -16.532511705663655 7.6061833580956035 -14.692661798274527 1 1 238.7324039657 0 0 0
365 1 -28.049553794925156 8.950317027183923 -15.791938839080785 1 1 238.7324039657 0 0 0
366 1 -28.733939082539717 9.718662557836408 -15.77551845593076 1 1 238.7324039657 0 0 0
344 1 -16.141900330699094 9.288949614526215 -15.732621839488587 1 1 238.7324039657 0 0 0
345 1 -16.238310160799557 8.369720946939843 -15.217317047444533 1 1 238.7324039657 0 0 0
343 1 -16.035135069721424 10.14267502864839 -16.351597294197532 1 1 238.7324039657 0 0 0
368 1 -29.277777842809286 11.605661359385449 -16.129602089819524 1 1 238.7324039657 0 0 0
369 1 -29.870446644715965 12.402045027748828 -16.093362481087226 1 1 238.7324039657 0 0 0
367 1 -28.976198552712237 10.686156887223884 -15.985365522618595 1 1 238.7324039657 0 0 0
247 1 -7.364124042040572 11.013869970769612 -16.1145889343014 1 0 238.7324039657 0 0 0
248 1 -7.376814147653255 11.384537260910426 -15.101215467137475 1 0 238.7324039657 0 0 0
372 1 -31.64266603705732 14.379532141696854 -15.037573344332056 1 1 238.7324039657 0 0 0
371 1 -31.097795729532297 13.753357521119495 -15.439552488520658 1 1 238.7324039657 0 0 0
370 1 -30.58207145383663 13.083109776903028 -15.748597955973498 1 1 238.7324039657 0 0 0
318 1 -4.332158518837714 24.47179440506528 -16.060816607892004 1 1 238.7324039657 0 0 0
317 1 -4.020957332379159 24.373078840746388 -14.99935385286035 1 1 238.7324039657 0 0 0
226 1 -19.46327154003275 -1.987449513685913 -13.05554116617499 1 0 238.7324039657 0 0 0
227 1 -19.16680108620726 -1.4212295489966562 -13.992288661031099 1 0 238.7324039657 0 0 0
358 1 -24.653437884667674 3.8848788113191666 -12.985713730225939 1 1 238.7324039657 0 0 0
357 1 -23.797455041625476 3.6832908249275667 -12.516567821103655 1 1 238.7324039657 0 0 0
45 1 1.420456312059922 3.7639783155934894 -12.667519449333435 1 0 238.7324039657 0 0 0
359 1 -25.367378250426984 4.420797565190419 -13.39026825638176 1 1 238.7324039657 0 0 0
360 1 -25.894430918492077 5.040688469428878 -13.935203096593561 1 1 238.7324039657 0 0 0
361 1 -26.15496518219568 5.911701763082848 -14.325358931072365 1 1 238.7324039657 0 0 0
348 1 -17.387300587527463 6.23699626584957 -13.627423672648831 1 1 238.7324039657 0 0 0
349 1 -17.646309932854777 5.451777610811317 -13.277251152682247 1 1 238.7324039657 0 0 0
350 1 -18.127093246075106 4.760292461194635 -12.941468875390907 1 1 238.7324039657 0 0 0
43 1 1.2812056480238336 5.67527985451555 -13.347218187052954 1 0 238.7324039657 0 0 0
44 1 1.2355653378834763 4.59283821843406 -13.191721441457469 1 0 238.7324039657 0 0 0
347 1 -17.058716206897195 6.99336673362879 -14.112214455487923 1 1 238.7324039657 0 0 0
41 1 0.9548269967797345 7.6229681914322 -12.759189747895322 1 0 238.7324039657 0 0 0
42 1 1.184777037276001 6.778994866489654 -13.330516604133225 1 0 238.7324039657 0 0 0
249 1 -7.335173670244268 11.656884970475254 -14.09006610706975 1 0 238.7324039657 0 0 0
250 1 -7.424986650921411 11.691931210848677 -13.074711845365325 1 0 238.7324039657 0 0 0
373 1 -32.22449468130171 14.866856561472542 -14.462896067013924 1 1 238.7324039657 0 0 0
375 1 -32.41448265022036 15.686868040066928 -12.847966425799775 1 1 238.7324039657 0 0 0
374 1 -32.515874992662305 15.32620663274155 -13.70866527818662 1 1 238.7324039657 0 0 0
315 1 -3.1224895595630477 24.3696699672127 -13.17689424857124 1 1 238.7324039657 0 0 0
316 1 -3.681091410595726 24.3137203234264 -13.96171793419404 1 1 238.7324039657 0 0 0
224 1 -19.69426093657329 -3.151270074876679 -11.07641993627927 1 0 238.7324039657 0 0 0
225 1 -19.656405579603906 -2.585124267581873 -12.051776054746558 1 0 238.7324039657 0 0 0
356 1 -22.944997395725057 3.41014888718222 -12.280040149491876 1 1 238.7324039657 0 0 0
354 1 -21.1211310126327 2.805796745630035 -12.44624436010402 1 1 238.7324039657 0 0 0
355 1 -22.140176592613436 2.885593816899229 -12.170162087213052 1 1 238.7324039657 0 0 0
352 1 -19.508675244340886 3.793785557157382 -11.971722421218065 1 1 238.7324039657 0 0 0
353 1 -20.457714491524456 3.508207643617337 -12.293652953123425 1 1 238.7324039657 0 0 0
351 1 -18.7486046341209 4.153952122530079 -12.424884076125766 1 1 238.7324039657 0 0 0
47 1 1.3481124974498073 2.141282416152738 -11.197052089473042 1 0 238.7324039657 0 0 0
46 1 1.3386880452725682 2.916315229403421 -12.020375174251095 1 0 238.7324039657 0 0 0
276 1 -27.591185394045873 10.333450393767837 -11.984382307621921 1 1 238.7324039657 0 0 0
275 1 -26.69876239448741 9.828033905355808 -12.172013124653443 1 1 238.7324039657 0 0 0
273 1 -25.259954992493302 9.841295752228891 -11.079332326324394 1 1 238.7324039657 0 0 0
274 1 -26.176495915778226 9.78804113145702 -11.423366593893226 1 1 238.7324039657 0 0 0
271 1 -23.334690459472846 9.143913093996265 -11.03876969495723 1 1 238.7324039657 0 0 0
272 1 -24.323779108623278 9.518165666578826 -11.16656848568991 1 1 238.7324039657 0 0 0
270 1 -22.46988630444348 8.810869213662086 -10.481741310043006 1 1 238.7324039657 0 0 0
39 1 0.6358752618927239 8.85624696239313 -11.217822739790867 1 0 238.7324039657 0 0 0
40 1 0.9427018745285457 8.3285302889404 -12.057955079759578 1 0 238.7324039657 0 0 0
277 1 -28.431176047728677 10.656164495387955 -11.411323087559692 1 1 238.7324039657 0 0 0
278 1 -28.50768013910613 11.38106796300113 -10.74131881341921 1 1 238.7324039657 0 0 0
279 1 -28.928052413369315 12.224606188478365 -11.097173948298607 1 1 238.7324039657 0 0 0
251 1 -7.5910639360654555 11.600274725990563 -12.07196888176394 1 1 238.7324039657 0 0 0
252 1 -7.824035666200382 11.473095632226865 -10.906488619208849 1 1 238.7324039657 0 0 0
93 1 0.8849914122103383 12.432097346475325 -11.008716614609538 1 0 238.7324039657 0 0 0
94 1 1.596216745400346 11.805355413724007 -10.936982343195512 1 0 238.7324039657 0 0 0
95 1 2.4734951947939168 11.179436140691825 -10.711573445832649 1 0 238.7324039657 0 0 0
96 1 3.5547403293525015 10.73035861922901 -10.409919508262341 1 0 238.7324039657 0 0 0
280 1 -28.406785635034446 13.066213805977375 -10.84023451091244 1 1 238.7324039657 0 0 0
90 1 -1.7919776888664616 13.69928029026447 -10.650861396293617 1 0 238.7324039657 0 0 0
91 1 -0.8391748375455044 13.441097534269804 -10.866413446962557 1 0 238.7324039657 0 0 0
92 1 0.043846023029844264 12.945179151124062 -11.007858616315751 1 0 238.7324039657 0 0 0
376 1 -32.286521111211194 15.907216695599042 -11.881720779903446 1 1 238.7324039657 0 0 0
377 1 -31.959756579669055 16.14672131334423 -10.961419798585968 1 1 238.7324039657 0 0 0
313 1 -2.809794840646059 23.983441982276698 -11.207177629404555 1 1 238.7324039657 0 0 0
314 1 -2.9137860989610123 24.065234883042404 -12.187613155755896 1 1 238.7324039657 0 0 0
222 1 -19.305576315834287 -3.883368785587029 -9.163726934603941 1 0 238.7324039657 0 0 0
223 1 -19.51142063141401 -3.4168828739293255 -10.115779017670961 1 0 238.7324039657 0 0 0
48 1 1.5500736360132843 1.5651831135381409 -10.302091205359243 1 0 238.7324039657 0 0 0
49 1 1.600228966706359 1.0188508022920961 -9.283290474100436 1 0 238.7324039657 0 0 0
100 1 6.006704201472079 8.250109606506491 -8.384806244313953 1 0 238.7324039657 0 0 0
269 1 -21.70425291727496 8.92697072231194 -9.849415373490393 1 1 238.7324039657 0 0 0
267 1 -19.76782943537563 9.286682500507439 -8.94939537815693 1 1 238.7324039657 0 0 0
268 1 -20.78313137960736 9.067971465568272 -9.314012118143609 1 1 238.7324039657 0 0 0
266 1 -18.69714464947176 9.663995644917863 -8.680809500595764 1 1 238.7324039657 0 0 0
37 1 0.11230111591640066 9.511153336197877 -9.204727955322697 1 0 238.7324039657 0 0 0
38 1 0.42725624846690097 9.204089045664528 -10.218461395308584 1 0 238.7324039657 0 0 0
97 1 4.347765397824452 10.240946046667023 -10.108254536979073 1 0 238.7324039657 0 0 0
98 1 5.0803903717545795 9.443708801459435 -9.591637500027188 1 0 238.7324039657 0 0 0
99 1 5.553187112167898 8.73567901730506 -9.005220486049815 1 0 238.7324039657 0 0 0
254 1 -8.699235350745578 11.066688675659258 -9.09138802811858 1 1 238.7324039657 0 0 0
253 1 -8.18022689560886 11.3413760092 -9.932302474597364 1 1 238.7324039657 0 0 0
281 1 -28.0583941619762 13.581135246721574 -10.107414679437696 1 1 238.7324039657 0 0 0
282 1 -27.512125330056993 14.352812997362284 -9.762595957134446 1 1 238.7324039657 0 0 0
87 1 -4.38994776462813 14.0812041771951 -9.115976799792916 1 0 238.7324039657 0 0 0
88 1 -3.5520732376795916 13.977401915474365 -9.80288859494234 1 0 238.7324039657 0 0 0
89 1 -2.710847012302035 13.898594892303654 -10.198836659924895 1 0 238.7324039657 0 0 0
378 1 -31.58265800678651 16.409824579377133 -10.135910733434716 1 1 238.7324039657 0 0 0
379 1 -31.003364902244083 16.47970154195877 -9.432058243920919 1 1 238.7324039657 0 0 0
380 1 -30.26500754546123 16.272058086856656 -8.790428868902925 1 1 238.7324039657 0 0 0
283 1 -27.083396652375246 15.037622205472816 -9.182767055019532 1 1 238.7324039657 0 0 0
284 1 -26.38123886172357 15.590164308361873 -8.744080277160535 1 1 238.7324039657 0 0 0
285 1 -25.490559352934838 16.07851794336548 -8.531498238389208 1 1 238.7324039657 0 0 0
286 1 -24.657111139696415 16.694415016277024 -8.406716774111795 1 1 238.7324039657 0 0 0
311 1 -3.0051644484002424 23.65592755470007 -9.313695877661171 1 1 238.7324039657 0 0 0
312 1 -2.920075375345735 23.932724359265972 -10.263404491105291 1 1 238.7324039657 0 0 0
310 1 -3.359070596059279 23.137505903686073 -8.46155571477396 1 1 238.7324039657 0 0 0
221 1 -18.795245631555158 -4.0241661628983385 -8.128835246258774 1 0 238.7324039657 0 0 0
220 1 -18.470930467253563 -4.0642566123903645 -7.060430619552481 1 0 238.7324039657 0 0 0
50 1 1.8778861619354172 0.62932623393071 -8.279718045289897 1 0 238.7324039657 0 0 0
51 1 2.1940544567906595 0.35567313003652185 -7.159137591430797 1 0 238.7324039657 0 0 0
394 1 -20.553544073691192 7.985635750598936 -6.519760105774559 1 1 238.7324039657 0 0 0
395 1 -19.680540075491813 7.466323094443799 -6.5207220303286055 1 1 238.7324039657 0 0 0
101 1 6.302250910886298 7.681068918416762 -7.5668061636164445 1 0 238.7324039657 0 0 0
102 1 6.58295515976988 7.401326957906831 -6.585788798809256 1 0 238.7324039657 0 0 0
391 1 -22.13337705252577 10.375567538961782 -6.561105397429511 1 1 238.7324039657 0 0 0
392 1 -21.569812107885042 9.645638122304936 -6.781438809467593 1 1 238.7324039657 0 0 0
393 1 -21.132572645761655 8.712395072115262 -6.849222408310908 1 1 238.7324039657 0 0 0
264 1 -17.046035002032106 9.464600443865546 -7.506077575473294 1 1 238.7324039657 0 0 0
265 1 -17.81384362474514 9.615606086896378 -8.11151497953929 1 1 238.7324039657 0 0 0
262 1 -15.330171981390112 9.26440832875682 -6.77509870206686 1 1 238.7324039657 0 0 0
263 1 -16.287195465734133 9.26473128986493 -6.956655038449207 1 1 238.7324039657 0 0 0
260 1 -13.464525007602402 9.8972500741645 -6.986741311011961 1 1 238.7324039657 0 0 0
261 1 -14.373274162024286 9.400078675982487 -6.7527689587847215 1 1 238.7324039657 0 0 0
257 1 -10.636084853230987 10.289437757473026 -6.9500683928151314 1 1 238.7324039657 0 0 0
258 1 -11.586861197549723 10.125995430866956 -6.687210423532096 1 1 238.7324039657 0 0 0
259 1 -12.47459478761844 9.978609039232548 -6.6384634279238375 1 1 238.7324039657 0 0 0
35 1 -0.7236576513847011 9.389393919979858 -7.282605277518927 1 0 238.7324039657 0 0 0
36 1 -0.28036276114518466 9.64728332313192 -8.15219743199998 1 0 238.7324039657 0 0 0
34 1 -1.0508331480464617 9.342131915709144 -6.2919265228820125 1 0 238.7324039657 0 0 0
389 1 -23.38979753150789 11.83214439750041 -6.799204074528682 1 1 238.7324039657 0 0 0
390 1 -22.74288878314223 11.15196817011859 -6.70296961399824 1 1 238.7324039657 0 0 0
255 1 -9.22846798102821 10.721449270129282 -8.357781031066008 1 1 238.7324039657 0 0 0
256 1 -9.869254415582654 10.470871713752476 -7.648000976296074 1 1 238.7324039657 0 0 0
386 1 -25.771226343878944 13.81099124941814 -6.656924683506014 1 1 238.7324039657 0 0 0
385 1 -26.61910268710382 14.30525635900467 -6.654332253562643 1 1 238.7324039657 0 0 0
388 1 -24.250474714895404 12.472174500463655 -6.942857262153131 1 1 238.7324039657 0 0 0
387 1 -24.915760876393115 13.094535850751575 -6.695442303880042 1 1 238.7324039657 0 0 0
85 1 -5.903904284069889 14.521547395860752 -7.559105425269943 1 0 238.7324039657 0 0 0
86 1 -5.22057416603594 14.260131122775165 -8.282796447846692 1 0 238.7324039657 0 0 0
381 1 -29.466332805858713 16.056060250503553 -8.389765602052949 1 1 238.7324039657 0 0 0
382 1 -28.891861112531785 15.593900305069127 -7.765225454789751 1 1 238.7324039657 0 0 0
383 1 -28.0722230338302 15.144650763535138 -7.4925202192160905 1 1 238.7324039657 0 0 0
384 1 -27.35119573508137 14.890478397685353 -6.894521707881336 1 1 238.7324039657 0 0 0
84 1 -6.683281659859735 14.844388648229508 -6.750807775087585 1 0 238.7324039657 0 0 0
287 1 -23.7175651214252 17.16116277489379 -8.201045217766664 1 1 238.7324039657 0 0 0
288 1 -22.957162409330998 17.644897304304607 -7.984795125002399 1 1 238.7324039657 0 0 0
289 1 -21.841247368274058 17.96464970844431 -7.533127008898337 1 1 238.7324039657 0 0 0
290 1 -20.81213049785708 18.33478901878981 -7.209193353411176 1 1 238.7324039657 0 0 0
291 1 -19.93709573117888 18.765005860019212 -7.036608297772453 1 1 238.7324039657 0 0 0
292 1 -18.985676431160233 19.115996238120662 -7.01608966932149 1 1 238.7324039657 0 0 0
293 1 -17.950223677847006 19.44297627803062 -6.8677684123995935 1 1 238.7324039657 0 0 0
294 1 -16.884884826689678 19.756434200529707 -6.675755439822558 1 1 238.7324039657 0 0 0
295 1 -15.937730318577353 19.914247352311705 -6.330600526702319 1 1 238.7324039657 0 0 0
308 1 -4.068728943838721 22.19975792063122 -7.006585498184333 1 1 238.7324039657 0 0 0
309 1 -3.6188434436214707 22.523329900260162 -7.767442979721394 1 1 238.7324039657 0 0 0
218 1 -17.4929846106047 -3.918960434972528 -5.205134984788572 1 0 238.7324039657 0 0 0
219 1 -17.874543125078617 -4.0629010085959445 -6.164230078704302 1 0 238.7324039657 0 0 0
217 1 -16.890499939675543 -3.511899643221111 -4.3849979668744945 1 0 238.7324039657 0 0 0
1 1 3.7155666937276752 -3.5792838217896943 -6.205161603830159 1 0 238.7324039657 0 0 0
2 1 3.9333272868781712 -3.39927211003271 -5.240356050738381 1 0 238.7324039657 0 0 0
3 1 4.307930180807037 -3.2159410410798692 -4.365818861501609 1 0 238.7324039657 0 0 0
53 1 2.7515122527223155 -0.07935436394733571 -5.264748225354515 1 0 238.7324039657 0 0 0
54 1 3.117570711468426 0.0008618498807474957 -4.301320617286789 1 0 238.7324039657 0 0 0
52 1 2.4048033692048247 -0.009717971036163293 -6.2067969237543 1 0 238.7324039657 0 0 0
398 1 -18.55994005611308 5.6712384133711895 -5.042912728520073 1 1 238.7324039657 0 0 0
151 1 -5.213352300759202 6.116562697944332 -4.253656714087131 1 0 238.7324039657 0 0 0
396 1 -19.566499813583846 6.582107031351536 -6.130912557141969 1 1 238.7324039657 0 0 0
397 1 -19.09567074724866 6.559610192978443 -5.311503621000954 1 1 238.7324039657 0 0 0
149 1 -5.89392387911878 8.091789329277773 -5.116895673822442 1 0 238.7324039657 0 0 0
150 1 -5.420474484060379 7.0151186081078105 -4.728708466197339 1 0 238.7324039657 0 0 0
103 1 6.4931797959637345 7.243321134132071 -5.617963969668802 1 0 238.7324039657 0 0 0
104 1 6.325575671510396 7.257415956409731 -4.547260576054909 1 0 238.7324039657 0 0 0
147 1 -6.6226060353737894 10.202813284372104 -4.910304932917512 1 0 238.7324039657 0 0 0
148 1 -6.277217805810125 9.10130461871564 -5.14759168412722 1 0 238.7324039657 0 0 0
32 1 -1.7522842320967384 8.64146371253366 -4.374771508805812 1 0 238.7324039657 0 0 0
33 1 -1.4375227592897777 8.979915768493862 -5.356119859755037 1 0 238.7324039657 0 0 0
146 1 -6.829883364255088 11.067653358345934 -4.541083361383924 1 0 238.7324039657 0 0 0
82 1 -7.188400003347802 15.233757509346168 -4.918116258652481 1 0 238.7324039657 0 0 0
83 1 -7.084772157807908 15.132625427965644 -5.849011610799849 1 0 238.7324039657 0 0 0
296 1 -15.032490697986322 20.066399111929524 -5.799924313121826 1 1 238.7324039657 0 0 0
297 1 -14.011932953782564 20.039846482742984 -5.7520394353860045 1 1 238.7324039657 0 0 0
298 1 -13.039612277778044 20.144428042312963 -5.485601238135539 1 1 238.7324039657 0 0 0
299 1 -11.956152706750267 20.12392876150988 -5.357438044239899 1 1 238.7324039657 0 0 0
300 1 -10.896673417416295 20.171668371282024 -5.172392761496993 1 1 238.7324039657 0 0 0
301 1 -9.946006478082566 20.468756842338358 -5.0266525841615834 1 1 238.7324039657 0 0 0
302 1 -8.908415747646519 20.502679530246883 -4.868020161639366 1 1 238.7324039657 0 0 0
303 1 -8.03983594575294 20.91257230222563 -5.100369757052052 1 1 238.7324039657 0 0 0
304 1 -7.12777987597195 21.19701740454296 -5.253029544881677 1 1 238.7324039657 0 0 0
305 1 -6.210733184457264 21.635398880792742 -5.285925791081522 1 1 238.7324039657 0 0 0
306 1 -5.323951106442402 21.94834869508657 -5.584437803497608 1 1 238.7324039657 0 0 0
307 1 -4.637684083909555 22.07850543645305 -6.231280094210453 1 1 238.7324039657 0 0 0
215 1 -15.636702514917152 -2.6235405223805963 -2.837884223902683 1 0 238.7324039657 0 0 0
216 1 -16.3069074047104 -3.161327755133255 -3.547257234875645 1 0 238.7324039657 0 0 0
4 1 4.7360793441825875 -3.053958349171831 -3.4838635491169314 1 0 238.7324039657 0 0 0
5 1 5.237188795893672 -2.7802728705778716 -2.420672696955982 1 0 238.7324039657 0 0 0
214 1 -14.99096508941235 -1.9827653584024318 -2.1982987727636876 1 0 238.7324039657 0 0 0
55 1 3.4827813419481317 0.140779712916441 -3.3168755483811996 1 0 238.7324039657 0 0 0
56 1 3.7640778433106488 0.5764007236432921 -2.4246099428565597 1 0 238.7324039657 0 0 0
399 1 -18.522317081484502 5.865131547937857 -3.9972653566670275 1 1 238.7324039657 0 0 0
400 1 -18.60007526226516 5.928954903840685 -3.065624139497491 1 1 238.7324039657 0 0 0
152 1 -4.854404253601328 5.227104632603901 -3.712262563573691 1 0 238.7324039657 0 0 0
153 1 -4.747004103553637 4.427334436225919 -2.9359806794664056 1 0 238.7324039657 0 0 0
401 1 -18.30284472648955 6.797717606874454 -2.6412381428699985 1 1 238.7324039657 0 0 0
30 1 -2.1867077948029685 7.8837326172934965 -2.3013013549709713 1 0 238.7324039657 0 0 0
31 1 -2.0118831580335312 8.226733485534446 -3.2499881460441515 1 0 238.7324039657 0 0 0
105 1 5.797787004786158 7.27224979817399 -3.71981783229945 1 0 238.7324039657 0 0 0
106 1 5.163344313752717 7.347222150689491 -2.806951700410188 1 0 238.7324039657 0 0 0
107 1 4.335460304834337 7.5471419261078205 -2.1115837088793867 1 0 238.7324039657 0 0 0
145 1 -6.865650771218038 11.87630545886947 -3.966006072223321 1 0 238.7324039657 0 0 0
486 1 -30.561483958511445 12.730671071888699 -2.1840097111313574 1 1 238.7324039657 0 0 0
487 1 -29.60662957105654 13.294526855568467 -2.4700595647574124 1 1 238.7324039657 0 0 0
488 1 -29.048063792859345 14.072700638522527 -2.716599538674281 1 1 238.7324039657 0 0 0
142 1 -7.354538220493286 14.501336758784664 -2.0953554008777835 1 0 238.7324039657 0 0 0
143 1 -7.010145980320834 13.605058361156667 -2.6745262277927973 1 0 238.7324039657 0 0 0
144 1 -6.908030029508324 12.74997504105304 -3.2922775507761495 1 0 238.7324039657 0 0 0
489 1 -28.366514729912666 14.676386311649653 -2.5981563340829386 1 1 238.7324039657 0 0 0
490 1 -27.897916040213065 15.437212545766474 -2.456895987528295 1 1 238.7324039657 0 0 0
491 1 -27.44989094262911 16.29886141827284 -2.332593838440254 1 1 238.7324039657 0 0 0
80 1 -6.6263606954232825 15.603192579497092 -3.061524094716207 1 0 238.7324039657 0 0 0
81 1 -7.000068697697469 15.42560690842525 -3.9864681557591077 1 0 238.7324039657 0 0 0
79 1 -6.049176753272018 15.741610309344754 -2.181480834656165 1 0 238.7324039657 0 0 0
492 1 -26.85057255104349 17.120195856356236 -2.344367113853616 1 1 238.7324039657 0 0 0
493 1 -26.387017670843537 17.91729742181231 -2.7505647602159136 1 1 238.7324039657 0 0 0
494 1 -26.521943621127903 18.82745538397698 -3.095596970374167 1 1 238.7324039657 0 0 0
495 1 -26.7291759762804 19.78440089890489 -3.109365796616901 1 1 238.7324039657 0 0 0
496 1 -26.559541931570912 20.692696983157592 -2.8311419376815388 1 1 238.7324039657 0 0 0
497 1 -26.211236788876334 21.518883192352284 -3.1900244032164284 1 1 238.7324039657 0 0 0
498 1 -26.96665484699259 22.084145416608546 -3.573330060939963 1 1 238.7324039657 0 0 0
499 1 -27.286367152936798 22.999276136499617 -3.5879539093884696 1 1 238.7324039657 0 0 0
6 1 5.875847361545615 -2.573889361370765 -1.5271734181990222 1 0 238.7324039657 0 0 0
7 1 6.203935521371522 -2.435862272789571 -0.4613775370027641 1 0 238.7324039657 0 0 0
211 1 -13.21499426027604 -0.1115326158491893 -0.2722577348321344 1 0 238.7324039657 0 0 0
212 1 -13.84203296223739 -0.749155981857891 -0.8364430348871925 1 0 238.7324039657 0 0 0
213 1 -14.495063200615427 -1.3599995611087246 -1.4226042164989594 1 0 238.7324039657 0 0 0
445 1 -23.646517018294286 1.7591136493199762 0.06492310657095317 1 1 238.7324039657 0 0 0
57 1 4.047076717986636 1.2158830013828412 -1.6708815847245366 1 0 238.7324039657 0 0 0
58 1 4.157705759769959 1.8064033980381615 -0.8496387151292198 1 0 238.7324039657 0 0 0
154 1 -4.787088289636918 3.7102147212079006 -2.081878046222235 1 0 238.7324039657 0 0 0
155 1 -4.77744086333521 3.080228767644332 -1.1387767278361103 1 0 238.7324039657 0 0 0
156 1 -5.18353938979808 2.7676082961807045 -0.1985624761829467 1 0 238.7324039657 0 0 0
59 1 4.1661778236501705 2.762834396044736 -0.16830541046512149 1 0 238.7324039657 0 0 0
479 1 -35.76849651252328 8.002874425345336 -0.234275203673356 1 1 238.7324039657 0 0 0
402 1 -18.34842918163426 7.244466126845828 -1.748156906184532 1 1 238.7324039657 0 0 0
403 1 -18.447515085548538 8.170168375621353 -1.5328290396623712 1 1 238.7324039657 0 0 0
28 1 -2.5743366932323504 6.728349524408424 -0.5004073426170164 1 0 238.7324039657 0 0 0
29 1 -2.3542177320568167 7.371969759294175 -1.3217434950872313 1 0 238.7324039657 0 0 0
108 1 3.5565422208961275 7.8851230142969655 -1.4490564448797523 1 0 238.7324039657 0 0 0
109 1 2.771056875559351 8.2227382120235 -0.8794475787541118 1 0 238.7324039657 0 0 0
480 1 -35.06945185402979 8.62704162594081 -0.700427243088364 1 1 238.7324039657 0 0 0
481 1 -34.379002457300615 9.089545640612783 -1.3403404449485996 1 1 238.7324039657 0 0 0
482 1 -33.81173527811674 10.073088468399867 -1.744735284916544 1 1 238.7324039657 0 0 0
404 1 -18.8114730616177 9.025068002278465 -1.4373915370382524 1 1 238.7324039657 0 0 0
405 1 -19.250498063435774 9.935605491272934 -1.4300375721746257 1 1 238.7324039657 0 0 0
110 1 2.1941422989804438 8.609485138257815 -0.12302063022429276 1 0 238.7324039657 0 0 0
483 1 -32.91244233600952 10.670658691199678 -1.829581477214807 1 1 238.7324039657 0 0 0
484 1 -32.129130030578686 11.360454836554872 -1.8007833714835515 1 1 238.7324039657 0 0 0
485 1 -31.41401020820025 12.0144667000451 -1.9025190039574362 1 1 238.7324039657 0 0 0
407 1 -19.471722125188123 11.733566851264221 -1.4792998975320866 1 1 238.7324039657 0 0 0
406 1 -19.50525731953026 10.824630369151992 -1.437337693896529 1 1 238.7324039657 0 0 0
408 1 -19.58273685644902 12.634940482268426 -1.1981392920988692 1 1 238.7324039657 0 0 0
409 1 -19.8188418168249 13.55740518206939 -0.9247558223628809 1 1 238.7324039657 0 0 0
411 1 -20.29065194032796 15.502391602707783 -0.8235183133347154 1 1 238.7324039657 0 0 0
412 1 -20.478000076948938 16.445095210417826 -0.5544585943211452 1 1 238.7324039657 0 0 0
410 1 -20.050009024503453 14.57615431515838 -0.7684020903197195 1 1 238.7324039657 0 0 0
139 1 -8.915019606571432 16.30579150894759 -0.14035686052946905 1 0 238.7324039657 0 0 0
140 1 -8.356495217321337 15.851131839895558 -0.8814284715376978 1 0 238.7324039657 0 0 0
141 1 -7.888683048044321 15.185439034603705 -1.5792573464816935 1 0 238.7324039657 0 0 0
77 1 -4.987425896130217 15.990985642395167 -0.2676818854421518 1 0 238.7324039657 0 0 0
78 1 -5.490285130820948 15.946966850710693 -1.2500904574861198 1 0 238.7324039657 0 0 0
8 1 6.430312362308106 -2.1845294821760795 0.4013029626865241 1 0 238.7324039657 0 0 0
9 1 6.9203788545294245 -1.920463254363256 1.4415752929579742 1 0 238.7324039657 0 0 0
447 1 -25.593795125177557 2.026124125300341 0.6987236330606517 1 1 238.7324039657 0 0 0
448 1 -26.651192702657475 2.1319062282717294 0.9935877509993193 1 1 238.7324039657 0 0 0
446 1 -24.73135184610486 1.900258897031759 0.3717839370097281 1 1 238.7324039657 0 0 0
444 1 -22.773117395193886 2.077945599869823 0.2246501758520499 1 1 238.7324039657 0 0 0
210 1 -12.611455168340825 0.6100660493776567 0.3523856249705845 1 0 238.7324039657 0 0 0
208 1 -11.038349328805491 2.0723514579051985 1.0126422572400318 1 0 238.7324039657 0 0 0
209 1 -11.763860809072986 1.2911187389710468 0.7364534454500175 1 0 238.7324039657 0 0 0
449 1 -27.481669736017874 2.5484677291462043 1.2891805894272599 1 1 238.7324039657 0 0 0
450 1 -27.834816878788555 3.2893088421329217 1.837155152106439 1 1 238.7324039657 0 0 0
443 1 -22.02063636264366 2.651294777248482 0.5626152500072558 1 1 238.7324039657 0 0 0
442 1 -21.184837012569233 3.0049798633457803 1.0525659676405077 1 1 238.7324039657 0 0 0
440 1 -19.690766711402173 3.4703879958961124 1.9626044175371196 1 1 238.7324039657 0 0 0
441 1 -20.30268305565981 3.304844641879607 1.2936432395699184 1 1 238.7324039657 0 0 0
206 1 -9.848105430957254 3.8080897427378573 1.6704755324941123 1 0 238.7324039657 0 0 0
207 1 -10.3985422432915 2.9125439932423403 1.297441157687909 1 0 238.7324039657 0 0 0
158 1 -6.454996837775472 2.281401869703314 1.5622863907980746 1 0 238.7324039657 0 0 0
157 1 -5.665498986156567 2.4710000619703125 0.7686098160241198 1 0 238.7324039657 0 0 0
60 1 4.12617410946989 3.5954010007519863 0.38670522781171063 1 0 238.7324039657 0 0 0
476 1 -37.254857836209766 6.075101961193689 1.304139129534623 1 1 238.7324039657 0 0 0
25 1 -2.7564575048901174 4.794168413312635 1.8237988966456984 1 0 238.7324039657 0 0 0
26 1 -2.8167589199776604 5.479551775620861 1.070391833591379 1 0 238.7324039657 0 0 0