LAMMPS data file via write_data, version 2 Aug 2023, timestep = 10000, units = lj

499 atoms
1 atom types
498 bonds
1 bond types
249 ellipsoids

-50 50 xlo xhi
-50 50 ylo yhi
-50 50 zlo zhi

Masses

1 1

Atoms # hybrid/kk

327 1 -11.080008612475034 23.6262355568162 -21.019843200139853 1 1 238.7324039657 0 0 0
325 1 -9.177240127012013 24.334563854393558 -20.92382492368775 1 1 238.7324039657 0 0 0
326 1 -10.226913067420224 24.10270225724593 -20.99364765876788 1 1 238.7324039657 0 0 0
233 1 -16.264397330116985 1.8046805052598518 -18.931421336788695 1 0 238.7324039657 0 0 0
234 1 -15.745051720328453 2.551369603085752 -19.664705043627162 1 0 238.7324039657 0 0 0
235 1 -15.012252023427166 3.2193527757383325 -20.272672509598447 1 0 238.7324039657 0 0 0
236 1 -13.960194023129935 3.7782405997448856 -20.668510194593903 1 0 238.7324039657 0 0 0
237 1 -13.030720939332095 4.241850738639494 -20.564640371096814 1 0 238.7324039657 0 0 0
238 1 -11.988575459717518 4.831744920455781 -20.31774389487136 1 0 238.7324039657 0 0 0
239 1 -11.311120902171666 5.533222132735121 -20.210306486094208 1 0 238.7324039657 0 0 0
240 1 -10.58525268194385 6.266519162673118 -20.30323498369926 1 0 238.7324039657 0 0 0
241 1 -9.695915762312218 6.954960257403947 -20.175878344455292 1 0 238.7324039657 0 0 0
242 1 -9.071601762629129 7.587606095939775 -19.847899126960694 1 0 238.7324039657 0 0 0
243 1 -8.391708941260141 8.40895608102673 -19.41964170898379 1 0 238.7324039657 0 0 0
244 1 -7.777468758901939 9.052627128238639 -18.83195498109568 1 0 238.7324039657 0 0 0
338 1 -16.279901895619144 14.521928463208406 -19.287778582169732 1 1 238.7324039657 0 0 0
339 1 -16.214897530268757 13.508193296658131 -18.87792960106006 1 1 238.7324039657 0 0 0
336 1 -16.12993725791493 16.64902667082734 -19.51315793768034 1 1 238.7324039657 0 0 0
337 1 -16.28465474064004 15.582455590652597 -19.492033020245 1 1 238.7324039657 0 0 0
334 1 -15.811495982505372 18.582838453892542 -19.667531243137294 1 1 238.7324039657 0 0 0
335 1 -15.977684301958018 17.619911578418822 -19.534339431577184 1 1 238.7324039657 0 0 0
332 1 -15.236652013074048 20.43600331130515 -19.862428192398003 1 1 238.7324039657 0 0 0
333 1 -15.556346233127806 19.462649100596767 -19.671336027322 1 1 238.7324039657 0 0 0
331 1 -14.552384801228131 21.368090598666704 -20.07453890827227 1 1 238.7324039657 0 0 0
329 1 -12.899652828939267 22.682483543992085 -20.574603416211904 1 1 238.7324039657 0 0 0
330 1 -13.782627806056325 22.01639955377048 -20.297039786138082 1 1 238.7324039657 0 0 0
328 1 -12.069150117590109 23.14830567769376 -20.782666939065088 1 1 238.7324039657 0 0 0
322 1 -6.59329530646446 24.698118270319576 -19.370970905472287 1 1 238.7324039657 0 0 0
323 1 -7.34720053115645 24.61274458454558 -20.04288911249892 1 1 238.7324039657 0 0 0
324 1 -8.283130935845268 24.62099691233371 -20.70326583753896 1 1 238.7324039657 0 0 0
231 1 -17.292134823665396 0.6242664299733608 -17.308794718092198 1 0 238.7324039657 0 0 0
232 1 -16.78673168136768 1.196088878992258 -18.090121858876824 1 0 238.7324039657 0 0 0
245 1 -7.481881340841136 9.71901741973361 -18.009760404014095 1 0 238.7324039657 0 0 0
367 1 -28.46919215210448 10.902741840051043 -16.54455586667125 1 1 238.7324039657 0 0 0
341 1 -15.93183384717827 11.907972357282464 -17.44663648263343 1 1 238.7324039657 0 0 0
342 1 -15.931004425892318 11.15511837740246 -16.810172805102862 1 1 238.7324039657 0 0 0
246 1 -7.469393769708443 10.485674828813247 -17.14060503792175 1 0 238.7324039657 0 0 0
340 1 -16.015992117609564 12.625478938523504 -18.251720807687782 1 1 238.7324039657 0 0 0
320 1 -5.537756678930063 24.60293039551745 -17.623985429783687 1 1 238.7324039657 0 0 0
321 1 -6.085591941511571 24.59388199270835 -18.51808609855944 1 1 238.7324039657 0 0 0
228 1 -18.90389387558647 -0.8721567188090852 -14.902885867445566 1 0 238.7324039657 0 0 0
229 1 -18.51411151236513 -0.3837164147698523 -15.74907348245627 1 0 238.7324039657 0 0 0
230 1 -17.829242074034195 0.02214690746835717 -16.62868776892766 1 0 238.7324039657 0 0 0
362 1 -26.9371924808982 6.554583337025792 -14.810208766660804 1 1 238.7324039657 0 0 0
363 1 -27.30324262826932 7.427999762823135 -15.18700798469846 1 1 238.7324039657 0 0 0
364 1 -27.306117754868133 8.272638916253339 -15.662923085788439 1 1 238.7324039657 0 0 0
365 1 -27.692078748544894 9.211722191560153 -15.972086699868028 1 1 238.7324039657 0 0 0
366 1 -27.900039089582002 10.085119473543717 -16.38351873562081 1 1 238.7324039657 0 0 0
344 1 -16.062473351238896 9.58385558926744 -15.608341892095241 1 1 238.7324039657 0 0 0
345 1 -15.93482884444898 8.712706478949437 -15.138025784852468 1 1 238.7324039657 0 0 0
368 1 -29.26339234630325 11.711689621065094 -16.623547670340226 1 1 238.7324039657 0 0 0
369 1 -29.982362542911698 12.42622379711515 -16.459502622691925 1 1 238.7324039657 0 0 0
343 1 -15.867111687693221 10.411523160379357 -16.150292273249836 1 1 238.7324039657 0 0 0
247 1 -7.387097162159001 11.086179968730178 -16.18823439431682 1 0 238.7324039657 0 0 0
248 1 -7.266016254430506 11.594462267422475 -15.118088219174494 1 0 238.7324039657 0 0 0
371 1 -31.360834142662036 13.876792281193914 -15.79992724913904 1 1 238.7324039657 0 0 0
370 1 -30.788821276756256 13.103963875761691 -16.163389429080347 1 1 238.7324039657 0 0 0
372 1 -31.97457176244783 14.49293614727188 -15.289513954007074 1 1 238.7324039657 0 0 0
373 1 -32.48605376167437 15.134497279327496 -14.724748272688428 1 1 238.7324039657 0 0 0
318 1 -4.358393320998356 24.62533250869451 -15.837235486220779 1 1 238.7324039657 0 0 0
319 1 -5.071829679300895 24.61715210150783 -16.72888976373555 1 1 238.7324039657 0 0 0
317 1 -3.6960494878537307 24.55852271660554 -15.105068815287073 1 1 238.7324039657 0 0 0
226 1 -19.46113485773388 -1.9971670039906924 -13.009714483140177 1 0 238.7324039657 0 0 0
227 1 -19.221883546580113 -1.4342412442338672 -13.907984198874516 1 0 238.7324039657 0 0 0
359 1 -25.22810094549871 4.043843227508785 -13.559990465046196 1 1 238.7324039657 0 0 0
358 1 -24.679599219120085 3.4066741623314782 -12.990899524040843 1 1 238.7324039657 0 0 0
45 1 1.2346273502192764 3.6134179983337544 -12.821756335568208 1 0 238.7324039657 0 0 0
360 1 -25.898920007240115 4.8296149611626475 -13.941587328495725 1 1 238.7324039657 0 0 0
361 1 -26.488318085643822 5.575356043776211 -14.40950384163086 1 1 238.7324039657 0 0 0
348 1 -16.811592222414973 5.866323852603134 -13.745636679784829 1 1 238.7324039657 0 0 0
349 1 -17.42547807976511 5.032619693045714 -13.243062094961656 1 1 238.7324039657 0 0 0
350 1 -18.01897858626822 4.37918725216564 -12.783496101373673 1 1 238.7324039657 0 0 0
43 1 1.3292695299295896 5.737430142408898 -13.707344089131688 1 0 238.7324039657 0 0 0
44 1 1.3639489940241687 4.6803532286729785 -13.355214780116317 1 0 238.7324039657 0 0 0
346 1 -16.18725707475144 7.7636289468215764 -14.641750240176584 1 1 238.7324039657 0 0 0
347 1 -16.40762160224035 6.777466800344401 -14.200736433071087 1 1 238.7324039657 0 0 0
41 1 1.0411405593963088 7.815907859976742 -13.001677871985224 1 0 238.7324039657 0 0 0
42 1 1.1954878138143266 6.849840389757435 -13.447460088025267 1 0 238.7324039657 0 0 0
249 1 -7.310195984951172 11.802444895295212 -13.985311528655581 1 0 238.7324039657 0 0 0
250 1 -7.403323742883342 11.79936788328287 -12.87024320231589 1 0 238.7324039657 0 0 0
375 1 -33.22627466478638 16.269401279540034 -13.048535985272277 1 1 238.7324039657 0 0 0
374 1 -32.913864228207096 15.729565601901124 -13.989674726200956 1 1 238.7324039657 0 0 0
315 1 -2.7750191799137016 24.214150084901423 -13.278463653360824 1 1 238.7324039657 0 0 0
316 1 -3.118835649605088 24.48310629116438 -14.244187041746569 1 1 238.7324039657 0 0 0
224 1 -19.857789342352255 -3.137072600350458 -11.1684674769862 1 0 238.7324039657 0 0 0
225 1 -19.737289050800136 -2.5993838250866905 -12.111973459350244 1 0 238.7324039657 0 0 0
47 1 1.4727498846693725 2.043846423441332 -11.15116006380068 1 0 238.7324039657 0 0 0
356 1 -23.14835155792765 2.6125078449182135 -11.901632924579156 1 1 238.7324039657 0 0 0
357 1 -23.942346823365657 2.876014877451917 -12.442057429338234 1 1 238.7324039657 0 0 0
354 1 -21.2779345017351 2.5055561577558962 -11.361144879234912 1 1 238.7324039657 0 0 0
355 1 -22.243290973963312 2.4560273204379546 -11.467871537935274 1 1 238.7324039657 0 0 0
352 1 -19.355295035704316 3.258032611753572 -11.768983906257388 1 1 238.7324039657 0 0 0
353 1 -20.423888471385798 2.882908001825835 -11.531107321889381 1 1 238.7324039657 0 0 0
351 1 -18.76588308374226 3.756794730101258 -12.359254208944064 1 1 238.7324039657 0 0 0
46 1 1.343595424458093 2.735063382924313 -12.077806714019308 1 0 238.7324039657 0 0 0
275 1 -27.379168499363974 9.273291278128657 -12.117740795125075 1 1 238.7324039657 0 0 0
276 1 -28.135739459892516 9.8005041756778 -11.93604785187672 1 1 238.7324039657 0 0 0
273 1 -25.42382889788372 8.897298163453621 -11.936441454695373 1 1 238.7324039657 0 0 0
274 1 -26.451914104211777 8.905456489703862 -11.993060759461951 1 1 238.7324039657 0 0 0
271 1 -23.42072765841743 9.314006226033355 -11.28762016677444 1 1 238.7324039657 0 0 0
272 1 -24.48704813888091 9.174973727022625 -11.636800493593274 1 1 238.7324039657 0 0 0
270 1 -22.607826168073167 9.69341954437607 -10.769890825385358 1 1 238.7324039657 0 0 0
39 1 0.7907990883823356 8.862352296704538 -11.134489729734769 1 0 238.7324039657 0 0 0
40 1 0.7597884074431853 8.472710039900152 -12.162680808259896 1 0 238.7324039657 0 0 0
277 1 -28.92675105764424 10.486494035462504 -11.740324490785381 1 1 238.7324039657 0 0 0
278 1 -29.32311776666291 11.31249278293127 -11.486522560088412 1 1 238.7324039657 0 0 0
279 1 -29.592133631021987 12.397677813150896 -11.04440840951791 1 1 238.7324039657 0 0 0
251 1 -7.542004355069366 11.541165656126129 -11.949321794725744 1 1 238.7324039657 0 0 0
252 1 -7.756095371594131 11.335570087718697 -10.875112947331436 1 1 238.7324039657 0 0 0
93 1 0.9409524918327831 12.337176196558994 -11.09913981522398 1 0 238.7324039657 0 0 0
94 1 1.7408347170803347 11.664237685941284 -10.88574836361307 1 0 238.7324039657 0 0 0
95 1 2.521992240135266 11.090025989336278 -10.70798711234718 1 0 238.7324039657 0 0 0
96 1 3.4032594432279453 10.852762523676011 -10.474898293090172 1 0 238.7324039657 0 0 0
280 1 -29.311052827307492 13.284611734755524 -10.582541067170762 1 1 238.7324039657 0 0 0
90 1 -1.7986229182979039 13.818834355757838 -10.651879029687864 1 0 238.7324039657 0 0 0
91 1 -0.7781291323680838 13.532159679128174 -10.933552285997301 1 0 238.7324039657 0 0 0
92 1 0.17904137365465922 13.064028904701408 -11.106092508815847 1 0 238.7324039657 0 0 0
376 1 -33.21859521685366 16.514469558256277 -12.062121138175813 1 1 238.7324039657 0 0 0
377 1 -32.86365721776604 16.556326266673906 -11.077788270116798 1 1 238.7324039657 0 0 0
313 1 -2.4661318156147556 23.965321706264763 -11.39924795938766 1 1 238.7324039657 0 0 0
314 1 -2.4548006180539366 24.151548331088705 -12.40235024096455 1 1 238.7324039657 0 0 0
222 1 -19.28881185272188 -3.8187490384043907 -9.11922115082946 1 0 238.7324039657 0 0 0
223 1 -19.716001847288563 -3.64919454425354 -10.153298977459503 1 0 238.7324039657 0 0 0
48 1 1.4015705912578404 1.452239553516293 -10.229077516958931 1 0 238.7324039657 0 0 0
49 1 1.5897192256086503 0.989984803770864 -9.33024660383693 1 0 238.7324039657 0 0 0
50 1 1.8000543875343453 0.5478876351651583 -8.26348726432906 1 0 238.7324039657 0 0 0
100 1 5.953261280061776 8.068438350482172 -8.465123794492325 1 0 238.7324039657 0 0 0
269 1 -21.741215602738237 9.685233274132607 -10.222718471478723 1 1 238.7324039657 0 0 0
267 1 -20.00337521479203 9.33774000328852 -9.038947552540506 1 1 238.7324039657 0 0 0
268 1 -20.856627694093678 9.55203003089319 -9.647301583945113 1 1 238.7324039657 0 0 0
37 1 0.061157640162014776 9.56562515655958 -9.283030573125293 1 0 238.7324039657 0 0 0
38 1 0.5288333809004419 9.273700323941153 -10.193614609567533 1 0 238.7324039657 0 0 0
97 1 4.459509958231099 10.255399953828105 -10.118252623605615 1 0 238.7324039657 0 0 0
98 1 5.029938543930726 9.62416387688151 -9.738175038975239 1 0 238.7324039657 0 0 0
99 1 5.529011276262812 8.843541253346494 -9.182863981879523 1 0 238.7324039657 0 0 0
253 1 -7.9565598224762715 11.107119572520828 -9.803701565512444 1 1 238.7324039657 0 0 0
254 1 -8.191667489458114 11.008181065258468 -8.8872190669331 1 1 238.7324039657 0 0 0
281 1 -28.823240825158077 13.969230586259165 -10.074364460863455 1 1 238.7324039657 0 0 0
87 1 -4.506767816025284 14.078742091674625 -9.05739815579261 1 0 238.7324039657 0 0 0
88 1 -3.7240069908986246 13.982866461430689 -9.729641523380558 1 0 238.7324039657 0 0 0
89 1 -2.824279890449582 13.904618501522101 -10.361340562059056 1 0 238.7324039657 0 0 0
378 1 -32.313142973811836 16.520021718060775 -10.160466640593192 1 1 238.7324039657 0 0 0
379 1 -31.65494211141527 16.4371232163256 -9.421240635748282 1 1 238.7324039657 0 0 0
380 1 -30.894714514552035 16.36444966164268 -8.745674391911946 1 1 238.7324039657 0 0 0
282 1 -28.08961811037684 14.556258792027474 -9.855739191091978 1 1 238.7324039657 0 0 0
283 1 -27.357772829969793 15.032170543556813 -9.380787784326445 1 1 238.7324039657 0 0 0
284 1 -26.463193770159194 15.475203036906697 -9.03771367434675 1 1 238.7324039657 0 0 0
285 1 -25.575840678467255 15.841835188093691 -8.590992979974146 1 1 238.7324039657 0 0 0
311 1 -2.6354555770837162 23.76524853529379 -9.315084474425708 1 1 238.7324039657 0 0 0
312 1 -2.3681043842656604 23.843167220080996 -10.273834360008479 1 1 238.7324039657 0 0 0
220 1 -18.32524967901406 -4.25493355415455 -7.124786286365548 1 0 238.7324039657 0 0 0
221 1 -18.861630533675452 -4.100641605060955 -8.091376811325883 1 0 238.7324039657 0 0 0
1 1 3.689155395126937 -3.603781093216992 -6.3554034093915215 1 0 238.7324039657 0 0 0
51 1 2.1550086707185323 0.30686556306213686 -7.32944652984462 1 0 238.7324039657 0 0 0
52 1 2.5154784226352245 0.17076188178588309 -6.25958857279843 1 0 238.7324039657 0 0 0
396 1 -18.927666795233524 6.224185940122556 -6.451528009415007 1 1 238.7324039657 0 0 0
394 1 -20.1436312981278 7.656307472324207 -7.394078106994738 1 1 238.7324039657 0 0 0
395 1 -19.380417043267684 6.9502554511515395 -7.099851628183759 1 1 238.7324039657 0 0 0
101 1 6.452410096866113 7.580087880599314 -7.622298425561445 1 0 238.7324039657 0 0 0
102 1 6.738285231851944 7.231913834541397 -6.605386292607327 1 0 238.7324039657 0 0 0
391 1 -22.143544669206296 10.011632292193184 -7.135394262916118 1 1 238.7324039657 0 0 0
392 1 -21.546767231286907 9.249251304318214 -7.32075852650179 1 1 238.7324039657 0 0 0
266 1 -19.122151569031818 9.024270291842138 -8.347940842132362 1 1 238.7324039657 0 0 0
393 1 -20.826288906962514 8.397579174444319 -7.568320709156762 1 1 238.7324039657 0 0 0
264 1 -17.15840655478116 9.004110283810343 -7.326829601617893 1 1 238.7324039657 0 0 0
265 1 -18.158074762906814 8.993607257796182 -7.838189232961968 1 1 238.7324039657 0 0 0
262 1 -15.201812121869414 9.199308430888694 -6.403168118331323 1 1 238.7324039657 0 0 0
263 1 -16.193851932690325 9.063923080408182 -6.862612627500863 1 1 238.7324039657 0 0 0
35 1 -0.588104576842768 9.737203235019594 -7.186970049353162 1 0 238.7324039657 0 0 0
36 1 -0.2843245315053198 9.752118195516012 -8.2644572369636 1 0 238.7324039657 0 0 0
390 1 -22.76255752928782 10.788494918893564 -6.70405696999595 1 1 238.7324039657 0 0 0
255 1 -8.643206872872852 10.92198636449543 -7.888455434169692 1 1 238.7324039657 0 0 0
256 1 -9.359843360812798 10.719133659967806 -6.961830305710087 1 1 238.7324039657 0 0 0
257 1 -10.12873503735548 10.464905989351369 -6.481800142589662 1 1 238.7324039657 0 0 0
85 1 -5.950234533172752 14.504605312894206 -7.484375686540808 1 0 238.7324039657 0 0 0
86 1 -5.135353720944131 14.197991567282864 -8.377233755191506 1 0 238.7324039657 0 0 0
381 1 -30.017280712289256 16.189060010102665 -8.022964550573585 1 1 238.7324039657 0 0 0
382 1 -28.984218282688502 16.10798853045649 -7.507543347759407 1 1 238.7324039657 0 0 0
383 1 -28.004549250858357 15.844780666579037 -6.915157987479202 1 1 238.7324039657 0 0 0
384 1 -27.02938634130876 15.368851343883659 -6.634700683344869 1 1 238.7324039657 0 0 0
286 1 -24.676017091351014 16.318472436101057 -8.100741941074462 1 1 238.7324039657 0 0 0
287 1 -23.908931084888223 16.866402961738913 -7.7717635204414846 1 1 238.7324039657 0 0 0
84 1 -6.600079443967895 14.879365458397556 -6.865914548728398 1 0 238.7324039657 0 0 0
288 1 -23.019213983137412 17.47693102168217 -7.53029759523311 1 1 238.7324039657 0 0 0
289 1 -22.226025216011372 18.143653484420465 -7.483994841285758 1 1 238.7324039657 0 0 0
290 1 -21.272177467232783 18.753030095693635 -7.392273776581424 1 1 238.7324039657 0 0 0
291 1 -20.2149276791235 19.14649829784927 -7.223077086063557 1 1 238.7324039657 0 0 0
292 1 -19.354106433448692 19.497365298903585 -7.103184962316176 1 1 238.7324039657 0 0 0
293 1 -18.15123563800856 19.829326092244735 -7.015262580091247 1 1 238.7324039657 0 0 0
294 1 -17.207039650350303 19.84576281846535 -6.720619164755738 1 1 238.7324039657 0 0 0
295 1 -16.00345864129507 20.10300935619432 -6.505810037638579 1 1 238.7324039657 0 0 0
296 1 -14.922187293146637 20.16198519261054 -6.369424519174248 1 1 238.7324039657 0 0 0
308 1 -3.821740564234061 22.806916403983312 -6.644751486425349 1 1 238.7324039657 0 0 0
309 1 -3.321089165333574 23.317344558345614 -7.410565720766332 1 1 238.7324039657 0 0 0
310 1 -2.8810482116432645 23.557733674619488 -8.333512885353288 1 1 238.7324039657 0 0 0
218 1 -17.458870313613723 -3.8769349842961627 -5.105363381801535 1 0 238.7324039657 0 0 0
219 1 -18.011651078048843 -4.117172052276673 -6.063606964384592 1 0 238.7324039657 0 0 0
2 1 3.8625258676056586 -3.447153623549787 -5.426203730655109 1 0 238.7324039657 0 0 0
3 1 4.152167263447312 -3.23706945804142 -4.445349921705956 1 0 238.7324039657 0 0 0
53 1 2.6915695294102218 -0.2183842924028367 -5.182379882927862 1 0 238.7324039657 0 0 0
397 1 -18.53995679155439 5.912379764303561 -5.638971116219176 1 1 238.7324039657 0 0 0
398 1 -18.298586991974968 5.4618032180388205 -4.830543911336996 1 1 238.7324039657 0 0 0
151 1 -5.123313603504846 6.10022426391357 -4.459150752118556 1 0 238.7324039657 0 0 0
149 1 -5.780959712498032 8.137281115464813 -5.170980877014527 1 0 238.7324039657 0 0 0
150 1 -5.470904431732004 7.148890820072331 -4.944331630126283 1 0 238.7324039657 0 0 0
103 1 6.742253267634284 7.194311183641788 -5.519322575390781 1 0 238.7324039657 0 0 0
104 1 6.306721597871555 7.240645337454865 -4.547632328854573 1 0 238.7324039657 0 0 0
260 1 -13.041141397923479 9.617495383944771 -5.849868650663711 1 1 238.7324039657 0 0 0
261 1 -14.085648198882726 9.565366457368057 -6.233301547850385 1 1 238.7324039657 0 0 0
258 1 -11.047200412591287 10.197152289548228 -6.0162352646623285 1 1 238.7324039657 0 0 0
259 1 -12.040688018960337 9.930136764447813 -5.878828796081428 1 1 238.7324039657 0 0 0
147 1 -6.749574819536186 10.11581380162715 -5.098970768623986 1 0 238.7324039657 0 0 0
148 1 -6.402750456854921 9.2005370093617 -5.380293342383492 1 0 238.7324039657 0 0 0
32 1 -1.9054516187526134 8.659060469548335 -4.263139074009237 1 0 238.7324039657 0 0 0
33 1 -1.555447472979507 8.836654795642385 -5.390068651699582 1 0 238.7324039657 0 0 0
34 1 -1.0678111575879434 9.247309449226092 -6.289198517829121 1 0 238.7324039657 0 0 0
388 1 -23.895533986338677 12.624804760082425 -6.030068892395468 1 1 238.7324039657 0 0 0
389 1 -23.392737110543905 11.741850018503484 -6.313250169116396 1 1 238.7324039657 0 0 0
146 1 -6.8769730244542675 11.10506028813497 -4.5573794398519585 1 0 238.7324039657 0 0 0
386 1 -25.369467100615076 14.229871337727445 -5.992677953509558 1 1 238.7324039657 0 0 0
387 1 -24.64286530144856 13.510021711141446 -6.038017796488625 1 1 238.7324039657 0 0 0
385 1 -26.101336671124237 14.974321366434404 -6.311537584755025 1 1 238.7324039657 0 0 0
82 1 -7.503578577152294 15.319817148700398 -5.004084460745691 1 0 238.7324039657 0 0 0
83 1 -7.2593314790681 15.087194427644977 -6.064463454046967 1 0 238.7324039657 0 0 0
297 1 -13.915121046498497 20.253235086353314 -5.894513458012968 1 1 238.7324039657 0 0 0
298 1 -12.79284442646635 20.242209895535684 -5.575376411787262 1 1 238.7324039657 0 0 0
299 1 -11.726571499357828 20.279258113006538 -5.098148886548142 1 1 238.7324039657 0 0 0
300 1 -10.700921142470866 20.28543588449979 -4.753137084174964 1 1 238.7324039657 0 0 0
301 1 -9.724424239943321 20.106177616496325 -4.413669497365306 1 1 238.7324039657 0 0 0
304 1 -6.589645059849209 20.60461280358713 -4.514645160936244 1 1 238.7324039657 0 0 0
305 1 -5.696577505843035 21.07830713391943 -4.873967900831177 1 1 238.7324039657 0 0 0
306 1 -5.004617177054451 21.639812022769465 -5.35842438597439 1 1 238.7324039657 0 0 0
307 1 -4.371339098118742 22.216521049841408 -5.924044905413692 1 1 238.7324039657 0 0 0
217 1 -16.909900802199722 -3.6875972136516504 -4.22165274139889 1 0 238.7324039657 0 0 0
214 1 -15.051954603737594 -2.1691391668295448 -2.1487804185804498 1 0 238.7324039657 0 0 0
215 1 -15.703002654304806 -2.6411494644515363 -2.8484500527784498 1 0 238.7324039657 0 0 0
216 1 -16.2688969049533 -3.122987368426529 -3.5858694828250024 1 0 238.7324039657 0 0 0
4 1 4.693461629247175 -3.037980559629019 -3.5653673239734447 1 0 238.7324039657 0 0 0
5 1 5.226433034316122 -2.9056969085334243 -2.6801863072613377 1 0 238.7324039657 0 0 0
54 1 2.980508151843592 -0.4231172664937737 -4.128728073803419 1 0 238.7324039657 0 0 0
55 1 3.524093331077053 0.09148852350639877 -3.319762325799928 1 0 238.7324039657 0 0 0
56 1 3.9801247040201946 0.6669919371137724 -2.5043227320136414 1 0 238.7324039657 0 0 0
399 1 -18.27583641087089 5.435441972771743 -3.8076441771885228 1 1 238.7324039657 0 0 0
400 1 -18.35488403543756 5.404773282894097 -2.8119682724310358 1 1 238.7324039657 0 0 0
152 1 -4.90663816752497 5.130868800403502 -3.737555690685619 1 0 238.7324039657 0 0 0
153 1 -4.614614550801203 4.259747878836129 -2.9629132083387786 1 0 238.7324039657 0 0 0
30 1 -2.1039190881158745 7.849141646546574 -2.3148588377492203 1 0 238.7324039657 0 0 0
105 1 5.867672597523813 7.326933254934546 -3.5612701938158042 1 0 238.7324039657 0 0 0
106 1 5.16722988463906 7.282270466763575 -2.7894204144446597 1 0 238.7324039657 0 0 0
31 1 -1.9774277289654967 8.393058739081372 -3.2836298645316986 1 0 238.7324039657 0 0 0
483 1 -33.14778256215599 10.957785594851169 -2.074666925419749 1 1 238.7324039657 0 0 0
484 1 -32.36088800386011 11.395539286626445 -2.2980252665389207 1 1 238.7324039657 0 0 0
485 1 -31.426940123260437 11.911275108339272 -2.4456853970952146 1 1 238.7324039657 0 0 0
145 1 -6.915739702053962 12.03527208688839 -3.975631652330003 1 0 238.7324039657 0 0 0
486 1 -30.458527140447003 12.411290536114699 -2.4593493032239095 1 1 238.7324039657 0 0 0
487 1 -29.626258656566595 13.116400703000219 -2.4559762290155875 1 1 238.7324039657 0 0 0
488 1 -28.67681120035024 13.689679980357052 -2.3374876464557746 1 1 238.7324039657 0 0 0
489 1 -27.901131913461782 14.505181818879494 -2.4013793116106843 1 1 238.7324039657 0 0 0
142 1 -7.197258930329547 14.439887214050222 -2.1346112296133954 1 0 238.7324039657 0 0 0
143 1 -6.907596615090101 13.550736256980077 -2.5025525643950375 1 0 238.7324039657 0 0 0
144 1 -6.857111150394737 12.806770116292602 -3.2750984110743353 1 0 238.7324039657 0 0 0
490 1 -27.247859760178095 15.283405841225646 -2.486318406286414 1 1 238.7324039657 0 0 0
491 1 -26.665331260001963 16.200701250509574 -2.526499080751221 1 1 238.7324039657 0 0 0
80 1 -6.5740387135794816 15.511519480687976 -3.0002599014209417 1 0 238.7324039657 0 0 0
81 1 -7.193806239029725 15.38827452816086 -3.9572866526084844 1 0 238.7324039657 0 0 0
492 1 -26.28393619508418 17.177125243047225 -2.5475723491801956 1 1 238.7324039657 0 0 0
493 1 -25.916862563795114 18.16696828781586 -2.6310119615100396 1 1 238.7324039657 0 0 0
494 1 -25.924382210624756 19.216810619182045 -2.668793235720468 1 1 238.7324039657 0 0 0
495 1 -26.002254720455362 20.299583294040836 -2.840446325925464 1 1 238.7324039657 0 0 0
302 1 -8.714354120251498 20.276864262349797 -4.30067052239264 1 1 238.7324039657 0 0 0
303 1 -7.602650820404447 20.312028012301493 -4.2734884715242565 1 1 238.7324039657 0 0 0
496 1 -26.35187672124425 21.219989267141983 -3.0119546803452435 1 1 238.7324039657 0 0 0
497 1 -26.644384930128357 22.102247773724944 -3.3259577765314883 1 1 238.7324039657 0 0 0
498 1 -27.268256656675646 22.781463430260647 -3.6308268223839932 1 1 238.7324039657 0 0 0
499 1 -27.702459861449192 23.53146330809514 -3.9458400900271604 1 1 238.7324039657 0 0 0
6 1 5.647888582978529 -2.6043411580731335 -1.5701030515824506 1 0 238.7324039657 0 0 0
7 1 6.241460216376833 -2.350374998075337 -0.6506549654226749 1 0 238.7324039657 0 0 0
211 1 -13.375634088190363 -0.028472250060871927 -0.0792817241907431 1 0 238.7324039657 0 0 0
212 1 -13.956000751393468 -0.6874770020565371 -0.8695308502807209 1 0 238.7324039657 0 0 0
213 1 -14.38835760477871 -1.4518557781830987 -1.6317708286400212 1 0 238.7324039657 0 0 0
446 1 -24.980661378514874 1.3634547158130486 -0.00686300159345548 1 1 238.7324039657 0 0 0
444 1 -23.02227602516493 1.7514002108073812 -0.14137672557842024 1 1 238.7324039657 0 0 0
445 1 -23.912092932390046 1.4314306537923986 -0.14272193580228457 1 1 238.7324039657 0 0 0
443 1 -22.03184456066081 2.029276691470452 0.06912610798575222 1 1 238.7324039657 0 0 0
57 1 4.084632039397275 1.107171507628854 -1.522529964845472 1 0 238.7324039657 0 0 0
58 1 4.125022148775834 1.817993700152786 -0.7096664709148973 1 0 238.7324039657 0 0 0
154 1 -4.47956692975533 3.5347222303378842 -2.0626898330392613 1 0 238.7324039657 0 0 0
155 1 -4.821431468903838 3.0339172933528213 -1.1323939146771573 1 0 238.7324039657 0 0 0
156 1 -5.102180756116075 2.5733829485759427 -0.15567076813367087 1 0 238.7324039657 0 0 0
59 1 4.2535635441355595 2.5858042634649054 -0.09064578307734014 1 0 238.7324039657 0 0 0
401 1 -18.55774708693243 5.8011515463818535 -1.9101156746333918 1 1 238.7324039657 0 0 0
478 1 -36.530314597729266 7.184277169407324 -0.11788700089000426 1 1 238.7324039657 0 0 0
479 1 -35.99058881007766 8.004009532948759 -0.5554558326478971 1 1 238.7324039657 0 0 0
402 1 -18.66834464217295 6.74052148460967 -1.3408366123284388 1 1 238.7324039657 0 0 0
403 1 -18.589754584077863 7.7513610356955756 -1.1267928498236999 1 1 238.7324039657 0 0 0
28 1 -2.592232593305347 6.928772930526732 -0.3978880939742282 1 0 238.7324039657 0 0 0
29 1 -2.3752994594012162 7.401179824301089 -1.3711725949131315 1 0 238.7324039657 0 0 0
108 1 3.625159234431842 7.785678764624278 -1.5624258522462364 1 0 238.7324039657 0 0 0
109 1 2.8004869058693074 8.271265056889002 -0.9774650982637619 1 0 238.7324039657 0 0 0
107 1 4.477797663045616 7.400017976348431 -2.0420711341485696 1 0 238.7324039657 0 0 0
480 1 -35.44908319726485 8.770620758682327 -1.0715698244202883 1 1 238.7324039657 0 0 0
481 1 -34.889424257086276 9.676094574864708 -1.3864262101071851 1 1 238.7324039657 0 0 0
482 1 -34.01436865958885 10.115514367178976 -1.759492175512034 1 1 238.7324039657 0 0 0
404 1 -18.52795826274268 8.756544860318565 -1.1556347593038236 1 1 238.7324039657 0 0 0
405 1 -18.606339363513754 9.74797766766119 -1.1712067115853613 1 1 238.7324039657 0 0 0
110 1 1.9917380121691628 8.64934896296107 -0.27654466529870003 1 0 238.7324039657 0 0 0
407 1 -19.113870262855194 11.706856183775887 -1.4967456828893078 1 1 238.7324039657 0 0 0
406 1 -18.823419948280943 10.65806821106083 -1.3484317340301284 1 1 238.7324039657 0 0 0
408 1 -19.659249236548845 12.67707376015813 -1.682501994569587 1 1 238.7324039657 0 0 0
409 1 -20.070511145845344 13.590528849605679 -1.524787240451707 1 1 238.7324039657 0 0 0
411 1 -20.752644744867922 15.47294515201472 -1.1210297698417304 1 1 238.7324039657 0 0 0
412 1 -20.92273929229492 16.564579063061387 -0.636323242485813 1 1 238.7324039657 0 0 0
410 1 -20.486687068062093 14.606703075245285 -1.4825529232451673 1 1 238.7324039657 0 0 0
139 1 -8.954601145469026 16.340919947022503 -0.19911841981278217 1 0 238.7324039657 0 0 0
140 1 -8.450895271425523 15.848767879709253 -1.1323450380744906 1 0 238.7324039657 0 0 0
141 1 -7.738024465870646 15.307398956065065 -1.7518218277851736 1 0 238.7324039657 0 0 0
77 1 -4.851479579985106 16.137212880251013 -0.25311675048321125 1 0 238.7324039657 0 0 0
78 1 -5.460788418542842 16.027378685699908 -1.24852048130105 1 0 238.7324039657 0 0 0
79 1 -6.013021451710684 15.7884527697244 -2.0919310453760747 1 0 238.7324039657 0 0 0
413 1 -20.95166968397273 17.371866359394616 -0.1907618120784999 1 1 238.7324039657 0 0 0
8 1 6.815609439985385 -2.1681218452925544 0.5073052810149629 1 0 238.7324039657 0 0 0
9 1 6.963505342319751 -2.0062019345061985 1.6323653110201577 1 0 238.7324039657 0 0 0
449 1 -27.511951825806307 2.1612927655177345 1.1752505339770618 1 1 238.7324039657 0 0 0
447 1 -25.9073978207737 1.4296538340825544 0.16276314919661689 1 1 238.7324039657 0 0 0
448 1 -26.824926434019986 1.6409584880984627 0.6454497203320915 1 1 238.7324039657 0 0 0
208 1 -10.984112652363507 2.035045178411139 1.0682934506283708 1 0 238.7324039657 0 0 0
209 1 -11.759490377251547 1.2605692503788088 0.8735318963486629 1 0 238.7324039657 0 0 0
210 1 -12.536095332533453 0.533844397667294 0.46373860318278276 1 0 238.7324039657 0 0 0
450 1 -28.191938936743718 2.6596831519567856 1.7024232918039661 1 1 238.7324039657 0 0 0
442 1 -21.186576374197116 2.540932511555976 0.23447602011706262 1 1 238.7324039657 0 0 0
440 1 -19.486750352156566 3.6719273737879257 1.2443209095672434 1 1 238.7324039657 0 0 0
441 1 -20.269442450853774 3.0838063910659845 0.7239064338308883 1 1 238.7324039657 0 0 0
206 1 -9.751984409859183 3.8022908388499603 1.4867594865663052 1 0 238.7324039657 0 0 0
207 1 -10.273684574609153 2.887533724740463 1.1761957618046022 1 0 238.7324039657 0 0 0
157 1 -5.539059784919971 2.426451176334508 0.8027575753012502 1 0 238.7324039657 0 0 0
158 1 -6.1882539092357645 2.3681413876503483 1.7135802826295317 1 0 238.7324039657 0 0 0
60 1 4.183190448827715 3.69101034468147 0.280740223762168 1 0 238.7324039657 0 0 0