# LAMMPS data file
2000 atoms
2000 ellipsoids
1978 bonds

4 atom types
1 bond types

# System size
0.000000 375.000000 xlo xhi
0.000000 375.000000 ylo yhi
0.000000 375.000000 zlo zhi

Masses

1 3.1575
2 3.1575
3 3.1575
4 3.1575

# Atom-ID, type, position, molecule-ID, ellipsoid flag, density
Atoms

1 3 -1.156998901367188e+02 -5.775970458984375e+00 -4.351235961914062e+01 1 1 1
2 3 -1.158757019042969e+02 -5.848937988281250e+00 -4.302282714843750e+01 1 1 1
3 4 -1.159011535644531e+02 -5.783691406250000e+00 -4.250228881835938e+01 1 1 1
4 2 -1.158449401855469e+02 -5.538238525390625e+00 -4.204135131835938e+01 1 1 1
5 3 -1.158039550781250e+02 -5.132690429687500e+00 -4.171008300781250e+01 1 1 1
6 4 -1.158698120117188e+02 -4.642272949218750e+00 -4.153396606445312e+01 1 1 1
7 4 -1.160973205566406e+02 -4.171386718750000e+00 -4.148498535156250e+01 1 1 1
8 4 -1.164856567382812e+02 -3.817810058593750e+00 -4.149139404296875e+01 1 1 1
9 4 -1.169786071777344e+02 -3.638793945312500e+00 -4.146237182617188e+01 1 1 1
10 4 -1.174839172363281e+02 -3.631591796875000e+00 -4.131924438476562e+01 1 1 1
11 4 -1.179051208496094e+02 -3.734252929687500e+00 -4.102273559570312e+01 1 1 1
12 1 -1.181746520996094e+02 -3.847015380859375e+00 -4.058624267578125e+01 1 1 1
13 3 -1.182772216796875e+02 -3.866577148437500e+00 -4.007150268554688e+01 1 1 1
14 3 -1.182550354003906e+02 -3.721832275390625e+00 -3.956707763671875e+01 1 1 1
15 4 -1.181932067871094e+02 -3.398132324218750e+00 -3.915808105468750e+01 1 1 1
16 1 -1.181905212402344e+02 -2.942565917968750e+00 -3.889669799804688e+01 1 1 1
17 1 -1.183254089355469e+02 -2.447570800781250e+00 -3.878430175781250e+01 1 1 1
18 4 -1.186289672851562e+02 -2.019134521484375e+00 -3.877096557617188e+01 1 1 1
19 3 -1.190741271972656e+02 -1.740356445312500e+00 -3.877267456054688e+01 1 1 1
20 3 -1.195851135253906e+02 -1.642822265625000e+00 -3.870019531250000e+01 1 1 1
21 3 -1.200634765625000e+02 -1.695678710937500e+00 -3.848986816406250e+01 1 1 1
22 2 -1.204220275878906e+02 -1.816314697265625e+00 -3.812548828125000e+01 1 1 1
23 1 -1.206147766113281e+02 -1.898742675781250e+00 -3.764389038085938e+01 1 1 1
24 2 -1.206528625488281e+02 -1.850158691406250e+00 -3.712231445312500e+01 1 1 1
25 3 -1.206007080078125e+02 -1.622863769531250e+00 -3.665167236328125e+01 1 1 1
26 2 -1.205537109375000e+02 -1.230712890625000e+00 -3.630545043945312e+01 1 1 1
27 1 -1.206055908203125e+02 -7.442932128906250e-01 -3.611419677734375e+01 1 1 1
28 1 -1.208160095214844e+02 -2.666625976562500e-01 -3.605517578125000e+01 1 1 1
29 1 -1.211899719238281e+02  1.021118164062500e-01 -3.606005859375000e+01 1 1 1
30 2 -1.216762084960938e+02  2.994995117187500e-01 -3.603854370117188e+01 1 1 1
31 4 -1.221848449707031e+02  3.219604492187500e-01 -3.590942382812500e+01 1 1 1
32 1 -1.226181945800781e+02  2.261657714843750e-01 -3.562850952148438e+01 1 1 1
33 2 -1.229045715332031e+02  1.095581054687500e-01 -3.520394897460938e+01 1 1 1
34 4 -1.230228576660156e+02  7.669067382812500e-02 -3.469323730468750e+01 1 1 1
35 3 -1.230097961425781e+02  2.033081054687500e-01 -3.418368530273438e+01 1 1 1
36 2 -1.229474487304688e+02  5.102539062500000e-01 -3.376205444335938e+01 1 1 1
37 4 -1.229347229003906e+02  9.562683105468750e-01 -3.348492431640625e+01 1 1 1
38 1 -1.230535583496094e+02  1.452178955078125e+00 -3.335910034179688e+01 1 1 1
39 2 -1.233404846191406e+02  1.891662597656250e+00 -3.333929443359375e+01 1 1 1
40 1 -1.237742614746094e+02  2.187835693359375e+00 -3.334365844726562e+01 1 1 1
41 1 -1.242829589843750e+02  2.303100585937500e+00 -3.328210449218750e+01 1 1 1
42 2 -1.247689819335938e+02  2.262237548828125e+00 -3.308718872070312e+01 1 1 1
43 4  1.248575439453125e+02  2.143737792968750e+00 -3.273739624023438e+01 1 1 1
44 2  1.246477355957031e+02  2.052795410156250e+00 -3.226455688476562e+01 1 1 1
45 1  1.245963134765625e+02  2.085205078125000e+00 -3.174282836914062e+01 1 1 1
46 1  1.246434936523438e+02  2.294189453125000e+00 -3.126327514648438e+01 1 1 1
47 1  1.246955261230469e+02  2.672241210937500e+00 -3.090237426757812e+01 1 1 1
48 3  1.246569824218750e+02  3.153594970703125e+00 -3.069577026367188e+01 1 1 1
49 4  1.244636230468750e+02  3.636932373046875e+00 -3.062600708007812e+01 1 1 1
50 2  1.241045837402344e+02  4.020263671875000e+00 -3.062841796875000e+01 1 1 1
51 2  1.236259155273438e+02  4.236022949218750e+00 -3.061361694335938e+01 1 1 1
52 4  1.231149902343750e+02  4.274322509765625e+00 -3.049801635742188e+01 1 1 1
53 2  1.226702270507812e+02  4.186401367187500e+00 -3.023284912109375e+01 1 1 1
54 3  1.223672485351562e+02  4.066986083984375e+00 -2.982073974609375e+01 1 1 1
55 2  1.222328796386719e+02  4.021606445312500e+00 -2.931500244140625e+01 1 1 1
56 3  1.222359313964844e+02  4.130310058593750e+00 -2.880114746093750e+01 1 1 1
57 4  1.222977905273438e+02  4.420104980468750e+00 -2.836749267578125e+01 1 1 1
58 1  1.223197021484375e+02  4.855621337890625e+00 -2.807470703125000e+01 1 1 1
59 2  1.222165832519531e+02  5.351318359375000e+00 -2.793499755859375e+01 1 1 1
60 2  1.219464721679688e+02  5.800964355468750e+00 -2.790786743164062e+01 1 1 1
61 3  1.215248413085938e+02  6.114135742187500e+00 -2.791400146484375e+01 1 1 1
62 4  1.210194091796875e+02  6.247436523437500e+00 -2.786267089843750e+01 1 1 1
63 2  1.205266723632812e+02  6.219360351562500e+00 -2.768292236328125e+01 1 1 1
64 4  1.201388244628906e+02  6.104064941406250e+00 -2.734802246093750e+01 1 1 1
65 4  1.199118957519531e+02  6.005615234375000e+00 -2.688470458984375e+01 1 1 1
66 3  1.198465270996094e+02  6.022369384765625e+00 -2.636380004882812e+01 1 1 1
67 4  1.198877258300781e+02  6.212982177734375e+00 -2.587609863281250e+01 1 1 1
68 3  1.199438171386719e+02  6.576232910156250e+00 -2.550091552734375e+01 1 1 1
69 4  1.199179687500000e+02  7.051483154296875e+00 -2.527877807617188e+01 1 1 1
70 1  1.197415771484375e+02  7.539520263671875e+00 -2.519757080078125e+01 1 1 1
71 3  1.193978881835938e+02  7.936706542968750e+00 -2.519662475585938e+01 1 1 1
72 3  1.189277343750000e+02  8.170715332031250e+00 -2.518765258789062e+01 1 1 1
73 2  1.184155273437500e+02  8.225372314453125e+00 -2.508508300781250e+01 1 1 1
74 2  1.179600830078125e+02  8.146331787109375e+00 -2.483566284179688e+01 1 1 1
75 1  1.176407775878906e+02  8.025177001953125e+00 -2.443658447265625e+01 1 1 1
76 4  1.174900512695312e+02  7.968109130859375e+00 -2.393670654296875e+01 1 1 1
77 3  1.174822692871094e+02  8.059173583984375e+00 -2.341946411132812e+01 1 1 1
78 4  1.175426330566406e+02  8.331451416015625e+00 -2.297439575195312e+01 1 1 1
79 1  1.175728454589844e+02  8.755615234375000e+00 -2.266607666015625e+01 1 1 1
80 2  1.174850158691406e+02  9.250030517578125e+00 -2.251208496093750e+01 1 1 1
81 2  1.172318725585938e+02  9.708862304687500e+00 -2.247677612304688e+01 1 1 1
82 1  1.168230590820312e+02  1.003860473632812e+01 -2.248373413085938e+01 1 1 1
83 1  1.163218994140625e+02  1.019009399414062e+01 -2.244189453125000e+01 1 1 1
84 2  1.158233947753906e+02  1.017559814453125e+01 -2.227706909179688e+01 1 1 1
85 4  1.154217529296875e+02  1.006454467773438e+01 -2.195736694335938e+01 1 1 1
86 4  1.151777038574219e+02  9.959625244140625e+00 -2.150424194335938e+01 1 1 1
87 4  1.150978393554688e+02  9.961334228515625e+00 -2.098510742187500e+01 1 1 1
88 3  1.151321411132812e+02  1.013357543945312e+01 -2.049011230468750e+01 1 1 1
89 3  1.151912536621094e+02  1.048141479492188e+01 -2.010101318359375e+01 1 1 1
90 4  1.151773986816406e+02  1.094952392578125e+01 -1.986322021484375e+01 1 1 1
91 1  1.150177917480469e+02  1.144116210937500e+01 -1.976998901367188e+01 1 1 1
92 1  1.146898803710938e+02  1.185144042968750e+01 -1.976473999023438e+01 1 1 1
93 4  1.142290954589844e+02  1.210351562500000e+01 -1.976071166992188e+01 1 1 1
94 3  1.137166137695312e+02  1.217504882812500e+01 -1.967062377929688e+01 1 1 1
95 3  1.132513732910156e+02  1.210577392578125e+01 -1.943692016601562e+01 1 1 1
96 4  1.129160766601562e+02  1.198403930664062e+01 -1.905139160156250e+01 1 1 1
97 1  1.127486572265625e+02  1.191613769531250e+01 -1.855819702148438e+01 1 1 1
98 1  1.127293090820312e+02  1.198989868164062e+01 -1.803851318359375e+01 1 1 1
99 1  1.127871398925781e+02  1.224432373046875e+01 -1.758270263671875e+01 1 1 1
100 1  1.128247680664062e+02  1.265631103515625e+01 -1.725903320312500e+01 1 1 1
101 4  1.121819458007812e+02  1.312139892578125e+01 -1.815927124023438e+01 2 1 1
102 4  1.126697387695312e+02  1.315911865234375e+01 -1.835037231445312e+01 2 1 1
103 4  1.131777343750000e+02  1.303936767578125e+01 -1.840930175781250e+01 2 1 1
104 4  1.136085205078125e+02  1.273895263671875e+01 -1.840441894531250e+01 2 1 1
105 1  1.138912658691406e+02  1.229681396484375e+01 -1.842599487304688e+01 2 1 1
106 2  1.140061340332031e+02  1.180087280273438e+01 -1.855523681640625e+01 2 1 1
107 2  1.139910278320312e+02  1.135742187500000e+01 -1.883627319335938e+01 2 1 1
108 1  1.139287109375000e+02  1.105471801757812e+01 -1.926095581054688e+01 2 1 1
109 4  1.139180908203125e+02  1.093258666992188e+01 -1.977169799804688e+01 2 1 1
110 4  1.140403442382812e+02  1.096865844726562e+01 -2.028125000000000e+01 2 1 1
111 1  1.143309020996094e+02  1.108609008789062e+01 -2.070275878906250e+01 2 1 1
112 2  1.147671813964844e+02  1.117999267578125e+01 -2.097973632812500e+01 2 1 1
113 2  1.152764587402344e+02  1.115362548828125e+01 -2.110540771484375e+01 2 1 1
114 1  1.157609252929688e+02  1.095166015625000e+01 -2.112518310546875e+01 2 1 1
115 1  1.161311950683594e+02  1.057916259765625e+01 -2.112081909179688e+01 2 1 1
116 1  1.163373107910156e+02  1.010000610351562e+01 -2.118246459960938e+01 2 1 1
117 3  1.163858032226562e+02  9.614746093750000e+00 -2.137753295898438e+01 2 1 1
118 4  1.163374938964844e+02  9.226043701171875e+00 -2.172747802734375e+01 2 1 1
119 4  1.162864685058594e+02  9.003326416015625e+00 -2.220040893554688e+01 2 1 1
120 3  1.163278198242188e+02  8.958831787109375e+00 -2.272210693359375e+01 2 1 1
121 3  1.165248413085938e+02  9.043487548828125e+00 -2.320159912109375e+01 2 1 1
122 4  1.168871459960938e+02  9.163696289062500e+00 -2.356234741210938e+01 2 1 1
123 1  1.173675231933594e+02  9.213623046875000e+00 -2.376879882812500e+01 2 1 1
124 2  1.178780517578125e+02  9.111694335937500e+00 -2.383850097656250e+01 2 1 1
125 1  1.183204345703125e+02  8.828552246093750e+00 -2.383602905273438e+01 2 1 1
126 4  1.186198425292969e+02  8.397247314453125e+00 -2.385089111328125e+01 2 1 1
127 3  1.187507019042969e+02  7.901916503906250e+00 -2.396661376953125e+01 2 1 1
128 3  1.187454223632812e+02  7.448638916015625e+00 -2.423193359375000e+01 2 1 1
129 2  1.186833496093750e+02  7.129119873046875e+00 -2.464416503906250e+01 2 1 1
130 2  1.186633605957031e+02  6.988891601562500e+00 -2.514993286132812e+01 2 1 1
131 4  1.187698364257812e+02  7.011871337890625e+00 -2.566375732421875e+01 2 1 1
132 1  1.190436096191406e+02  7.125671386718750e+00 -2.609732055664062e+01 2 1 1
133 2  1.194678955078125e+02  7.226715087890625e+00 -2.638995361328125e+01 2 1 1
134 1  1.199741516113281e+02  7.215759277343750e+00 -2.652951049804688e+01 2 1 1
135 2  1.204655151367188e+02  7.032165527343750e+00 -2.655661010742188e+01 2 1 1
136 1  1.208502807617188e+02  6.674713134765625e+00 -2.655047607421875e+01 2 1 1
137 1  1.210735168457031e+02  6.202056884765625e+00 -2.660189819335938e+01 2 1 1
138 3  1.211358337402344e+02  5.712554931640625e+00 -2.678176879882812e+01 2 1 1
139 1  1.210932617187500e+02  5.310272216796875e+00 -2.711682128906250e+01 2 1 1
140 2  1.210379638671875e+02  5.069366455078125e+00 -2.758026123046875e+01 2 1 1
141 3  1.210664978027344e+02  5.008300781250000e+00 -2.810113525390625e+01 2 1 1
142 3  1.212465515136719e+02  5.083740234375000e+00 -2.858877563476562e+01 2 1 1
143 4  1.215935974121094e+02  5.205230712890625e+00 -2.896383666992188e+01 2 1 1
144 1  1.220656433105469e+02  5.266540527343750e+00 -2.918582153320312e+01 2 1 1
145 2  1.225776672363281e+02  5.182128906250000e+00 -2.926690673828125e+01 2 1 1
146 3  1.230308532714844e+02  4.916595458984375e+00 -2.926782226562500e+01 2 1 1
147 2  1.233466796875000e+02  4.497009277343750e+00 -2.927685546875000e+01 2 1 1
148 3  1.234938354492188e+02  4.003387451171875e+00 -2.937954711914062e+01 2 1 1
149 1  1.234992370605469e+02  3.541259765625000e+00 -2.962911987304688e+01 2 1 1
150 3  1.234384460449219e+02  3.205352783203125e+00 -3.002828979492188e+01 2 1 1
151 3  1.234099426269531e+02  3.046905517578125e+00 -3.052825927734375e+01 2 1 1
152 1  1.235010375976562e+02  3.055999755859375e+00 -3.104544067382812e+01 2 1 1
153 2  1.237578735351562e+02  3.165161132812500e+00 -3.149044799804688e+01 2 1 1
154 4  1.241694946289062e+02  3.272308349609375e+00 -3.179861450195312e+01 2 1 1
155 4  1.246716613769531e+02  3.276123046875000e+00 -3.195248413085938e+01 2 1 1
156 4 -1.248309936523438e+02  3.110900878906250e+00 -3.198767089843750e+01 2 1 1
157 3 -1.244322814941406e+02  2.769104003906250e+00 -3.198074340820312e+01 2 1 1
158 1 -1.241919250488281e+02  2.303955078125000e+00 -3.202267456054688e+01 2 1 1
159 3 -1.241152343750000e+02  1.811218261718750e+00 -3.218762207031250e+01 2 1 1
160 4 -1.241510925292969e+02  1.396148681640625e+00 -3.250747680664062e+01 2 1 1
161 4 -1.242096557617188e+02  1.137237548828125e+00 -3.296069335937500e+01 2 1 1
162 3 -1.241932678222656e+02  1.059173583984375e+00 -3.347982788085938e+01 2 1 1
163 4 -1.240300292968750e+02  1.124450683593750e+00 -3.397479248046875e+01 2 1 1
164 1 -1.236986999511719e+02  1.246154785156250e+00 -3.436373901367188e+01 2 1 1
165 3 -1.232358398437500e+02  1.317932128906250e+00 -3.460137939453125e+01 2 1 1
166 2 -1.227233276367188e+02  1.250671386718750e+00 -3.469451904296875e+01 2 1 1
167 1 -1.222601318359375e+02  1.003082275390625e+00 -3.469970703125000e+01 2 1 1
168 3 -1.219282531738281e+02  5.960083007812500e-01 -3.470379638671875e+01 2 1 1
169 4 -1.217644653320312e+02  1.051940917968750e-01 -3.479397583007812e+01 2 1 1
170 1 -1.217476501464844e+02 -3.648071289062500e-01 -3.502783203125000e+01 2 1 1
171 3 -1.218061218261719e+02 -7.165832519531250e-01 -3.541348266601562e+01 2 1 1
172 4 -1.218422241210938e+02 -8.934020996093750e-01 -3.590673828125000e+01 2 1 1
173 4 -1.217660217285156e+02 -8.988342285156250e-01 -3.642639160156250e+01 2 1 1
174 4 -1.215262756347656e+02 -7.954101562500000e-01 -3.688214111328125e+01 2 1 1
175 3 -1.211280212402344e+02 -6.831970214843750e-01 -3.720565795898438e+01 2 1 1
176 2 -1.206308593750000e+02 -6.652526855468750e-01 -3.737420654296875e+01 2 1 1
177 3 -1.201285400390625e+02 -8.121643066406250e-01 -3.741833496093750e+01 2 1 1
178 4 -1.197164611816406e+02 -1.137786865234375e+00 -3.741149902343750e+01 2 1 1
179 3 -1.194590759277344e+02 -1.594451904296875e+00 -3.744470214843750e+01 2 1 1
180 2 -1.193674621582031e+02 -2.089294433593750e+00 -3.759509277343750e+01 2 1 1
181 2 -1.193956909179688e+02 -2.516357421875000e+00 -3.789953613281250e+01 2 1 1
182 2 -1.194565124511719e+02 -2.793029785156250e+00 -3.834182739257812e+01 2 1 1
183 1 -1.194515075683594e+02 -2.888488769531250e+00 -3.885827636718750e+01 2 1 1
184 4 -1.193049011230469e+02 -2.834259033203125e+00 -3.935971069335938e+01 2 1 1
185 4 -1.189896545410156e+02 -2.713439941406250e+00 -3.976208496093750e+01 2 1 1
186 1 -1.185368041992188e+02 -2.632080078125000e+00 -4.001547241210938e+01 2 1 1
187 2 -1.180248107910156e+02 -2.682617187500000e+00 -4.012121582031250e+01 2 1 1
188 2 -1.175524597167969e+02 -2.912078857421875e+00 -4.013159179687500e+01 2 1 1
189 4 -1.172048950195312e+02 -3.305847167968750e+00 -4.013159179687500e+01 2 1 1
190 1 -1.170242614746094e+02 -3.792816162109375e+00 -4.020989990234375e+01 2 1 1
191 1 -1.169953002929688e+02 -4.269683837890625e+00 -4.042813110351562e+01 2 1 1
192 1 -1.170504760742188e+02 -4.636718750000000e+00 -4.079977416992188e+01 2 1 1
193 1 -1.170932617187500e+02 -4.831909179687500e+00 -4.128552246093750e+01 2 1 1
194 1 -1.170314331054688e+02 -4.852539062500000e+00 -4.180670166015625e+01 2 1 1
195 1 -1.168087768554688e+02 -4.755859375000000e+00 -4.227249145507812e+01 2 1 1
196 2 -1.164244689941406e+02 -4.639648437500000e+00 -4.261114501953125e+01 2 1 1
197 3 -1.159333496093750e+02 -4.608337402343750e+00 -4.279464721679688e+01 2 1 1
198 1 -1.154269714355469e+02 -4.737091064453125e+00 -4.284844970703125e+01 2 1 1
199 2 -1.150022583007812e+02 -5.046051025390625e+00 -4.284268188476562e+01 2 1 1
200 2 -1.147279052734375e+02 -5.493225097656250e+00 -4.286791992187500e+01 2 1 1
201 3  5.543536376953125e+01  4.535052490234375e+01  1.226232910156250e+01 3 1 1
202 3  5.496282958984375e+01  4.538275146484375e+01  1.203521728515625e+01 3 1 1
203 4  5.456787109375000e+01  4.560211181640625e+01  1.176739501953125e+01 3 1 1
204 2  5.433477783203125e+01  4.592749023437500e+01  1.142727661132812e+01 3 1 1
205 3  5.429229736328125e+01  4.624133300781250e+01  1.100823974609375e+01 3 1 1
206 4  5.440338134765625e+01  4.642987060546875e+01  1.053079223632812e+01 3 1 1
207 4  5.457818603515625e+01  4.642272949218750e+01  1.003555297851562e+01 3 1 1
208 4  5.470495605468750e+01  4.621679687500000e+01  9.569305419921875e+00 3 1 1
209 4  5.468841552734375e+01  4.587731933593750e+01  9.168823242187500e+00 3 1 1
210 4  5.448260498046875e+01  4.551574707031250e+01  8.848266601562500e+00 3 1 1
211 4  5.410687255859375e+01  4.525091552734375e+01  8.594207763671875e+00 3 1 1
212 1  5.363891601562500e+01  4.516845703125000e+01  8.370391845703125e+00 3 1 1
213 3  5.318829345703125e+01  4.529125976562500e+01  8.130096435546875e+00 3 1 1
214 3  5.285852050781250e+01  4.557141113281250e+01  7.832336425781250e+00 3 1 1
215 4  5.271160888671875e+01  4.590692138671875e+01  7.455841064453125e+00 3 1 1
216 1  5.274652099609375e+01  4.617663574218750e+01  7.006500244140625e+00 3 1 1
217 1  5.289959716796875e+01  4.628216552734375e+01  6.515258789062500e+00 3 1 1
218 4  5.306652832031250e+01  4.618157958984375e+01  6.027526855468750e+00 3 1 1
219 3  5.313824462890625e+01  4.590393066406250e+01  5.587463378906250e+00 3 1 1
220 3  5.303845214843750e+01  4.553930664062500e+01  5.222839355468750e+00 3 1 1
221 3  5.274987792968750e+01  4.520764160156250e+01  4.935424804687500e+00 3 1 1
222 2  5.232031250000000e+01  4.501757812500000e+01  4.700469970703125e+00 3 1 1
223 1  5.184606933593750e+01  4.502899169921875e+01  4.475036621093750e+00 3 1 1
224 2  5.143878173828125e+01  4.523242187500000e+01  4.213073730468750e+00 3 1 1
225 3  5.118713378906250e+01  4.555218505859375e+01  3.880950927734375e+00 3 1 1
226 2  5.112622070312500e+01  4.587268066406250e+01  3.469268798828125e+00 3 1 1
227 1  5.122528076171875e+01  4.607788085937500e+01  2.996063232421875e+00 3 1 1
228 1  5.139874267578125e+01  4.609167480468750e+01  2.500488281250000e+00 3 1 1
229 1  5.153515625000000e+01  4.590368652343750e+01  2.029388427734375e+00 3 1 1
230 2  5.153601074218750e+01  4.557305908203125e+01  1.621276855468750e+00 3 1 1
231 4  5.134936523437500e+01  4.520812988281250e+01  1.292846679687500e+00 3 1 1
232 1  5.098791503906250e+01  4.492889404296875e+01  1.033477783203125e+00 3 1 1
233 2  5.052447509765625e+01  4.482604980468750e+01  8.086853027343750e-01 3 1 1
234 4  5.006707763671875e+01  4.492932128906250e+01  5.721435546875000e-01 3 1 1
235 3  4.972155761718750e+01  4.519769287109375e+01  2.814636230468750e-01 3 1 1
236 2  4.955529785156250e+01  4.553308105468750e+01 -8.694458007812500e-02 3 1 1
237 4  4.957391357421875e+01  4.581451416015625e+01 -5.300292968750000e-01 3 1 1
238 1  4.971948242187500e+01  4.593945312500000e+01 -1.018981933593750e+00 3 1 1
239 2  4.989019775390625e+01  4.585937500000000e+01 -1.509216308593750e+00 3 1 1
240 1  4.997564697265625e+01  4.559619140625000e+01 -1.955688476562500e+00 3 1 1
241 1  4.989489746093750e+01  4.523504638671875e+01 -2.328399658203125e+00 3 1 1
242 2  4.962402343750000e+01  4.489471435546875e+01 -2.622802734375000e+00 3 1 1
243 4  4.920483398437500e+01  4.468676757812500e+01 -2.861297607421875e+00 3 1 1
244 2  4.872991943359375e+01  4.467724609375000e+01 -3.085510253906250e+00 3 1 1
245 1  4.831127929687500e+01  4.486389160156250e+01 -3.342010498046875e+00 3 1 1
246 1  4.804150390625000e+01  4.517687988281250e+01 -3.666229248046875e+00 3 1 1
247 1  4.796179199218750e+01  4.550280761718750e+01 -4.070312500000000e+00 3 1 1
248 3  4.804797363281250e+01  4.572393798828125e+01 -4.538879394531250e+00 3 1 1
249 4  4.821887207031250e+01  4.575854492187500e+01 -5.034332275390625e+00 3 1 1
250 2  4.836395263671875e+01  4.558911132812500e+01 -5.509857177734375e+00 3 1 1
251 2  4.838165283203125e+01  4.526843261718750e+01 -5.925476074218750e+00 3 1 1
252 4  4.821435546875000e+01  4.490136718750000e+01 -6.261810302734375e+00 3 1 1
253 2  4.786791992187500e+01  4.460876464843750e+01 -6.526855468750000e+00 3 1 1
254 3  4.741015625000000e+01  4.448571777343750e+01 -6.753112792968750e+00 3 1 1
255 2  4.694702148437500e+01  4.456915283203125e+01 -6.986389160156250e+00 3 1 1
256 3  4.658642578125000e+01  4.482464599609375e+01 -7.270172119140625e+00 3 1 1
257 4  4.640081787109375e+01  4.515875244140625e+01 -7.630493164062500e+00 3 1 1
258 1  4.640264892578125e+01  4.545080566406250e+01 -8.067047119140625e+00 3 1 1
259 2  4.653961181640625e+01  4.559466552734375e+01 -8.553283691406250e+00 3 1 1
260 2  4.671295166015625e+01  4.553527832031250e+01 -9.045532226562500e+00 3 1 1
261 3  4.681134033203125e+01  4.528747558593750e+01 -9.498046875000000e+00 3 1 1
262 4  4.674932861328125e+01  4.493103027343750e+01 -9.878814697265625e+00 3 1 1
263 2  4.649664306640625e+01  4.458312988281250e+01 -1.018045043945312e+01 3 1 1
264 4  4.608874511718750e+01  4.435797119140625e+01 -1.042288208007812e+01 3 1 1
265 4  4.561437988281250e+01  4.432751464843750e+01 -1.064639282226562e+01 3 1 1
266 3  4.518536376953125e+01  4.449670410156250e+01 -1.089776611328125e+01 3 1 1
267 4  4.489776611328125e+01  4.480169677734375e+01 -1.121423339843750e+01 3 1 1
268 3  4.479907226562500e+01  4.513189697265625e+01 -1.161056518554688e+01 3 1 1
269 4  4.487158203125000e+01  4.536804199218750e+01 -1.207409667968750e+01 3 1 1
270 1  4.503875732421875e+01  4.542327880859375e+01 -1.256893920898438e+01 3 1 1
271 3  4.519146728515625e+01  4.527294921875000e+01 -1.304849243164062e+01 3 1 1
272 3  4.522546386718750e+01  4.496331787109375e+01 -1.347137451171875e+01 3 1 1
273 2  4.507745361328125e+01  4.459539794921875e+01 -1.381576538085938e+01 3 1 1
274 2  4.474682617187500e+01  4.429028320312500e+01 -1.408682250976562e+01 3 1 1
275 1  4.429577636718750e+01  4.414752197265625e+01 -1.431497192382812e+01 3 1 1
276 4  4.382800292968750e+01  4.421069335937500e+01 -1.454544067382812e+01 3 1 1
277 3  4.345306396484375e+01  4.445239257812500e+01 -1.482263183593750e+01 3 1 1
278 4  4.324835205078125e+01  4.478393554687500e+01 -1.517483520507812e+01 3 1 1
279 1  4.323278808593750e+01  4.508557128906250e+01 -1.560455322265625e+01 3 1 1
280 2  4.336010742187500e+01  4.524780273437500e+01 -1.608761596679688e+01 3 1 1
281 2  4.353491210937500e+01  4.520922851562500e+01 -1.658142089843750e+01 3 1 1
282 1  4.364532470703125e+01  4.497760009765625e+01 -1.703970336914062e+01 3 1 1
283 1  4.360180664062500e+01  4.462707519531250e+01 -1.742843627929688e+01 3 1 1
284 2  4.336767578125000e+01  4.427276611328125e+01 -1.773751831054688e+01 3 1 1
285 4  4.297198486328125e+01  4.403112792968750e+01 -1.798428344726562e+01 3 1 1
286 4  4.249932861328125e+01  4.397979736328125e+01 -1.820755004882812e+01 3 1 1
287 4  4.206091308593750e+01  4.413085937500000e+01 -1.845419311523438e+01 3 1 1
288 3  4.175604248046875e+01  4.442675781250000e+01 -1.876303100585938e+01 3 1 1
289 3  4.163812255859375e+01  4.476000976562500e+01 -1.915151977539062e+01 3 1 1
290 4  4.169610595703125e+01  4.501031494140625e+01 -1.960961914062500e+01 3 1 1
291 1  4.185845947265625e+01  4.508587646484375e+01 -2.010339355468750e+01 3 1 1
292 1  4.201770019531250e+01  4.495520019531250e+01 -2.058654785156250e+01 3 1 1
293 4  4.206732177734375e+01  4.465759277343750e+01 -2.101647949218750e+01 3 1 1
294 3  4.193865966796875e+01  4.429010009765625e+01 -2.136895751953125e+01 3 1 1
295 3  4.162445068359375e+01  4.397357177734375e+01 -2.164633178710938e+01 3 1 1
296 4  4.118121337890625e+01  4.381146240234375e+01 -2.187689208984375e+01 3 1 1
297 1  4.070996093750000e+01  4.385406494140625e+01 -2.210498046875000e+01 3 1 1
298 1  4.032147216796875e+01  4.408111572265625e+01 -2.237582397460938e+01 3 1 1
299 1  4.009777832031250e+01  4.440887451171875e+01 -2.271997070312500e+01 3 1 1
300 1  4.006433105468750e+01  4.471887207031250e+01 -2.314263916015625e+01 3 1 1
301 4  4.093658447265625e+01  4.396356201171875e+01 -2.347235107421875e+01 4 1 1
302 4  4.120288085937500e+01  4.430590820312500e+01 -2.317614746093750e+01 4 1 1
303 4  4.127893066406250e+01  4.466601562500000e+01 -2.280139160156250e+01 4 1 1
304 4  4.119018554687500e+01  4.492535400390625e+01 -2.235339355468750e+01 4 1 1
305 1  4.101867675781250e+01  4.500030517578125e+01 -2.186264038085938e+01 4 1 1
306 2  4.087524414062500e+01  4.487060546875000e+01 -2.137429809570312e+01 4 1 1
307 2  4.086071777343750e+01  4.458642578125000e+01 -2.093283081054688e+01 4 1 1
308 1  4.103179931640625e+01  4.425122070312500e+01 -2.056643676757812e+01 4 1 1
309 4  4.138116455078125e+01  4.398596191406250e+01 -2.027752685546875e+01 4 1 1
310 4  4.184014892578125e+01  4.388763427734375e+01 -2.004180908203125e+01 4 1 1
311 1  4.230224609375000e+01  4.399554443359375e+01 -1.981671142578125e+01 4 1 1
312 2  4.266003417968750e+01  4.427819824218750e+01 -1.955593872070312e+01 4 1 1
313 2  4.284185791015625e+01  4.464379882812500e+01 -1.922555541992188e+01 4 1 1
314 1  4.283673095703125e+01  4.497204589843750e+01 -1.881552124023438e+01 4 1 1
315 1  4.269799804687500e+01  4.515545654296875e+01 -1.834329223632812e+01 4 1 1
316 1  4.252514648437500e+01  4.513647460937500e+01 -1.784771728515625e+01 4 1 1
317 3  4.242913818359375e+01  4.492718505859375e+01 -1.737561035156250e+01 4 1 1
318 4  4.249475097656250e+01  4.460522460937500e+01 -1.696585083007812e+01 4 1 1
319 4  4.275097656250000e+01  4.428704833984375e+01 -1.663571166992188e+01 4 1 1
320 3  4.316119384765625e+01  4.408776855468750e+01 -1.637512207031250e+01 4 1 1
321 3  4.363574218750000e+01  4.408154296875000e+01 -1.615005493164062e+01 4 1 1
322 4  4.406280517578125e+01  4.427612304687500e+01 -1.591424560546875e+01 4 1 1
323 1  4.434698486328125e+01  4.461010742187500e+01 -1.562512207031250e+01 4 1 1
324 2  4.444201660156250e+01  4.497393798828125e+01 -1.525845336914062e+01 4 1 1
325 1  4.436676025390625e+01  4.524804687500000e+01 -1.481677246093750e+01 4 1 1
326 4  4.419879150390625e+01  4.534350585937500e+01 -1.432836914062500e+01 4 1 1
327 3  4.404748535156250e+01  4.523309326171875e+01 -1.383764648437500e+01 4 1 1
328 3  4.401660156250000e+01  4.496038818359375e+01 -1.338986206054688e+01 4 1 1
329 2  4.416833496093750e+01  4.462481689453125e+01 -1.301538085937500e+01 4 1 1
330 2  4.450207519531250e+01  4.434747314453125e+01 -1.271939086914062e+01 4 1 1
331 4  4.495452880859375e+01  4.422955322265625e+01 -1.248010253906250e+01 4 1 1
332 1  4.542144775390625e+01  4.431707763671875e+01 -1.225607299804688e+01 4 1 1
333 2  4.579370117187500e+01  4.458557128906250e+01 -1.200073242187500e+01 4 1 1
334 1  4.599475097656250e+01  4.494818115234375e+01 -1.167819213867188e+01 4 1 1
335 2  4.600689697265625e+01  4.528552246093750e+01 -1.127578735351562e+01 4 1 1
336 1  4.587762451171875e+01  4.548706054687500e+01 -1.080831909179688e+01 4 1 1
337 1  4.570300292968750e+01  4.548895263671875e+01 -1.031295776367188e+01 4 1 1
338 3  4.559484863281250e+01  4.529614257812500e+01 -9.836517333984375e+00 4 1 1
339 1  4.564190673828125e+01  4.498052978515625e+01 -9.419281005859375e+00 4 1 1
340 2  4.587963867187500e+01  4.465643310546875e+01 -9.081176757812500e+00 4 1 1
341 3  4.627777099609375e+01  4.444097900390625e+01 -8.814849853515625e+00 4 1 1
342 3  4.675085449218750e+01  4.441394042968750e+01 -8.588226318359375e+00 4 1 1
343 4  4.718756103515625e+01  4.459014892578125e+01 -8.355590820312500e+00 4 1 1
344 1  4.748913574218750e+01  4.491455078125000e+01 -8.073272705078125e+00 4 1 1
345 2  4.760333251953125e+01  4.528100585937500e+01 -7.714721679687500e+00 4 1 1
346 3  4.754241943359375e+01  4.556884765625000e+01 -7.279663085937500e+00 4 1 1
347 2  4.737902832031250e+01  4.568463134765625e+01 -6.794067382812500e+00 4 1 1
348 3  4.722100830078125e+01  4.559393310546875e+01 -6.301452636718750e+00 4 1 1
349 1  4.717437744140625e+01  4.533367919921875e+01 -5.847625732421875e+00 4 1 1
350 3  4.730676269531250e+01  4.499896240234375e+01 -5.465118408203125e+00 4 1 1
351 3  4.762420654296875e+01  4.471063232421875e+01 -5.161865234375000e+00 4 1 1
352 1  4.806903076171875e+01  4.457354736328125e+01 -4.918518066406250e+00 4 1 1
353 2  4.853967285156250e+01  4.464050292968750e+01 -4.695129394531250e+00 4 1 1
354 4  4.892565917968750e+01  4.489398193359375e+01 -4.444824218750000e+00 4 1 1
355 4  4.914569091796875e+01  4.525225830078125e+01 -4.130035400390625e+00 4 1 1
356 4  4.917559814453125e+01  4.559759521484375e+01 -3.735382080078125e+00 4 1 1
357 3  4.905670166015625e+01  4.581658935546875e+01 -3.273040771484375e+00 4 1 1
358 1  4.888159179687500e+01  4.583941650390625e+01 -2.778381347656250e+00 4 1 1
359 3  4.876208496093750e+01  4.566381835937500e+01 -2.298004150390625e+00 4 1 1
360 4  4.879101562500000e+01  4.535577392578125e+01 -1.873535156250000e+00 4 1 1
361 4  4.900994873046875e+01  4.502697753906250e+01 -1.527404785156250e+00 4 1 1
362 3  4.939520263671875e+01  4.479620361328125e+01 -1.254974365234375e+00 4 1 1
363 4  4.986566162109375e+01  4.474841308593750e+01 -1.026336669921875e+00 4 1 1
364 1  5.031091308593750e+01  4.490570068359375e+01 -7.964477539062500e-01 4 1 1
365 3  5.062933349609375e+01  4.521948242187500e+01 -5.206604003906250e-01 4 1 1
366 2  5.076281738281250e+01  4.558721923828125e+01 -1.702270507812500e-01 4 1 1
367 1  5.071704101562500e+01  4.588793945312500e+01  2.579956054687500e-01 4 1 1
368 3  5.055932617187500e+01  4.602355957031250e+01  7.402954101562500e-01 4 1 1