LAMMPS data file via write_data, version 27 Jun 2024, timestep = 200, units = lj

3 atoms
1 atom types
3 ellipsoids

-2 2 xlo xhi
-2 2 ylo yhi
-5 5 zlo zhi

Atoms # ellipsoid/kk

1 1 1 238.7324039657 0 0 -4.500000000000043 0 0 1
3 1 1 238.7324039657 0 0 3.4999999999999685 0 0 0
2 1 1 238.7324039657 0 0 4.499999999999957 0 0 0

Velocities

1 0 0 10 0 0 0
3 0 0 10 0 0 0
2 0 0 10 0 0 0

Ellipsoids

1 0.5 0.5 1 1 0 0 0
3 1 0.5 0.5 0.9237852583388739 0 0.3829109511045357 0
2 0.5 1 0.5 0.9237852583388739 0.3829109511045357 0 0
