ITEM: TIMESTEP
0
ITEM: NUMBER OF ATOMS
499
ITEM: BOX BOUNDS pp pp pp
-5.0000000000000000e+01 5.0000000000000000e+01
-5.0000000000000000e+01 5.0000000000000000e+01
-5.0000000000000000e+01 5.0000000000000000e+01
ITEM: ATOMS id type xs ys zs
327 1 0.38806 0.73811 0.289401
325 1 0.409193 0.745961 0.288598
326 1 0.397488 0.741453 0.286922
233 1 0.337222 0.517554 0.310852
234 1 0.341966 0.525453 0.303346
235 1 0.349951 0.532765 0.296791
236 1 0.358977 0.53707 0.292305
237 1 0.371446 0.543251 0.294593
238 1 0.380116 0.547846 0.296917
239 1 0.387701 0.556227 0.298027
240 1 0.3945 0.562935 0.29699
241 1 0.401734 0.568336 0.297714
242 1 0.409888 0.576367 0.301784
243 1 0.415506 0.583647 0.305204
244 1 0.422858 0.59067 0.31149
338 1 0.337226 0.644756 0.307006
339 1 0.337502 0.636122 0.310553
336 1 0.338441 0.662926 0.304366
337 1 0.3363 0.653157 0.305026
334 1 0.341665 0.686366 0.305123
335 1 0.340126 0.674088 0.305148
332 1 0.347411 0.706053 0.301194
333 1 0.34327 0.69722 0.302396
331 1 0.352574 0.714754 0.299788
329 1 0.37028 0.724849 0.294767
330 1 0.360235 0.720152 0.297658
328 1 0.378201 0.731015 0.291905
322 1 0.434311 0.745473 0.305496
323 1 0.429158 0.747642 0.2979
324 1 0.419186 0.746424 0.292957
231 1 0.326774 0.5059 0.32756
232 1 0.33239 0.512266 0.318725
245 1 0.425544 0.5972 0.320115
367 1 0.216121 0.609574 0.332245
341 1 0.340896 0.620842 0.323229
342 1 0.341286 0.614523 0.331636
246 1 0.425114 0.604536 0.327641
340 1 0.339782 0.627312 0.315341
320 1 0.444862 0.74646 0.325334
321 1 0.440576 0.746827 0.314521
228 1 0.310506 0.490936 0.351493
229 1 0.315527 0.497083 0.340977
230 1 0.321361 0.499744 0.334132
362 1 0.22832 0.562745 0.352402
363 1 0.225997 0.572989 0.348426
364 1 0.224541 0.583958 0.344696
365 1 0.227341 0.593535 0.338468
366 1 0.222883 0.601919 0.334944
344 1 0.341681 0.596211 0.344604
345 1 0.338968 0.58616 0.350452
368 1 0.207235 0.617196 0.333586
369 1 0.19992 0.623346 0.334548
343 1 0.340467 0.605856 0.338043
247 1 0.426099 0.611308 0.338571
248 1 0.427613 0.616332 0.348611
371 1 0.184951 0.637919 0.341042
370 1 0.193403 0.631244 0.336461
372 1 0.178821 0.646065 0.346797
373 1 0.174513 0.652629 0.353148
318 1 0.455299 0.74702 0.341997
319 1 0.44936 0.74506 0.33443
317 1 0.462823 0.747028 0.346807
226 1 0.3053 0.479723 0.370446
227 1 0.307732 0.485757 0.360911
359 1 0.246714 0.540512 0.364895
358 1 0.25366 0.533083 0.369311
45 1 0.511738 0.535862 0.371299
360 1 0.240725 0.548646 0.358664
361 1 0.235234 0.556259 0.356083
348 1 0.333024 0.558457 0.361708
349 1 0.327023 0.550692 0.36698
350 1 0.320684 0.544256 0.371738
43 1 0.513269 0.558311 0.362205
44 1 0.514081 0.54699 0.366179
346 1 0.339327 0.57548 0.354703
347 1 0.337192 0.566586 0.358
41 1 0.510686 0.57881 0.369384
42 1 0.512071 0.567608 0.365111
249 1 0.426938 0.618302 0.360069
250 1 0.426031 0.61819 0.37192
375 1 0.165966 0.663448 0.369157
374 1 0.16987 0.658763 0.359807
315 1 0.473885 0.742953 0.366404
316 1 0.469786 0.743547 0.355685
224 1 0.301084 0.468839 0.387961
225 1 0.302574 0.47417 0.37844
47 1 0.51506 0.520614 0.388153
356 1 0.266653 0.522598 0.381486
357 1 0.259506 0.526776 0.375103
354 1 0.287894 0.525816 0.390546
355 1 0.276973 0.523493 0.38758
352 1 0.305193 0.531193 0.380258
353 1 0.297683 0.525764 0.388348
351 1 0.31361 0.537177 0.377212
46 1 0.513553 0.526516 0.379617
275 1 0.225672 0.589368 0.380271
276 1 0.215581 0.595797 0.380951
273 1 0.247271 0.585795 0.378032
274 1 0.236135 0.586512 0.376875
271 1 0.263113 0.596495 0.388302
272 1 0.256865 0.589016 0.38236
270 1 0.273376 0.598227 0.391863
39 1 0.508374 0.588451 0.388585
40 1 0.507004 0.585228 0.378491
277 1 0.207974 0.606487 0.381555
278 1 0.203444 0.61482 0.383403
279 1 0.203249 0.623608 0.389548
251 1 0.424 0.616309 0.381834
252 1 0.422668 0.611927 0.391917
93 1 0.509561 0.623069 0.388798
94 1 0.517369 0.616604 0.391191
95 1 0.525712 0.610411 0.393012
96 1 0.535564 0.607768 0.395733
280 1 0.203173 0.63201 0.394768
90 1 0.482337 0.638428 0.393444
91 1 0.492331 0.635457 0.390528
92 1 0.501915 0.631082 0.388748
376 1 0.165845 0.66654 0.378301
377 1 0.168105 0.667232 0.387889
313 1 0.478184 0.740278 0.386098
314 1 0.474599 0.740976 0.376788
222 1 0.30748 0.46198 0.409442
223 1 0.302261 0.462829 0.398283
48 1 0.513532 0.514302 0.397763
49 1 0.51618 0.509351 0.407783
50 1 0.517559 0.505778 0.416261
100 1 0.559157 0.580431 0.414856
269 1 0.284142 0.599405 0.396076
267 1 0.299313 0.592983 0.410068
268 1 0.293106 0.597174 0.402789
37 1 0.500415 0.595769 0.407191
38 1 0.505423 0.592995 0.398354
97 1 0.54267 0.603884 0.398034
98 1 0.550349 0.596576 0.402309
99 1 0.555433 0.588443 0.408002
253 1 0.420434 0.610088 0.402754
254 1 0.418447 0.61042 0.411345
281 1 0.208558 0.640921 0.398047
87 1 0.454642 0.640758 0.409504
88 1 0.462973 0.639782 0.402459
89 1 0.471029 0.639071 0.396209
378 1 0.174426 0.66533 0.397317
379 1 0.182232 0.6637 0.406285
380 1 0.190709 0.662849 0.414317
282 1 0.21734 0.64716 0.403157
283 1 0.228457 0.651273 0.40537
284 1 0.237385 0.654446 0.409591
285 1 0.244516 0.65923 0.41419
311 1 0.475607 0.736655 0.406673
312 1 0.475916 0.737914 0.39663
220 1 0.317142 0.456961 0.428325
221 1 0.311004 0.458918 0.418884
1 1 0.536721 0.463805 0.435495
51 1 0.521522 0.502816 0.426557
52 1 0.525455 0.502283 0.43718
396 1 0.313347 0.561935 0.433766
394 1 0.299787 0.5761 0.422867
395 1 0.305616 0.568093 0.426851
101 1 0.565164 0.575349 0.424322
102 1 0.567525 0.572063 0.433667
391 1 0.276584 0.600189 0.428513
392 1 0.283606 0.592376 0.42417
266 1 0.307664 0.589275 0.417403
393 1 0.29301 0.583363 0.423231
264 1 0.327134 0.58817 0.426692
265 1 0.315838 0.586422 0.423017
262 1 0.349249 0.594038 0.43464
263 1 0.338245 0.591798 0.429854
35 1 0.494742 0.598562 0.427931
36 1 0.497206 0.597578 0.416764
390 1 0.271631 0.608584 0.4324
255 1 0.415796 0.609547 0.421582
256 1 0.407953 0.607999 0.429916
257 1 0.401006 0.605982 0.436296
85 1 0.441656 0.644525 0.423935
86 1 0.447221 0.64242 0.417809
381 1 0.200659 0.663207 0.420939
382 1 0.208937 0.661431 0.426744
383 1 0.219655 0.659715 0.429894
384 1 0.229926 0.657031 0.434873
286 1 0.253372 0.663154 0.419896
287 1 0.261565 0.666485 0.423666
84 1 0.434668 0.648736 0.430567
288 1 0.268821 0.675076 0.424849
289 1 0.276547 0.681172 0.425879
290 1 0.284882 0.68717 0.425409
291 1 0.294309 0.692918 0.425705
292 1 0.305067 0.695672 0.428031
293 1 0.318734 0.698135 0.431861
294 1 0.329018 0.700936 0.432203
295 1 0.340816 0.700491 0.434241
296 1 0.351811 0.701401 0.437424
308 1 0.462638 0.730802 0.434794
309 1 0.467453 0.735087 0.426661
310 1 0.471804 0.737408 0.416819
218 1 0.325319 0.461307 0.448718
219 1 0.319638 0.458809 0.440033
2 1 0.538592 0.465528 0.445965
3 1 0.54126 0.467613 0.455544
53 1 0.526704 0.497517 0.448202
397 1 0.316758 0.555921 0.441981
398 1 0.317741 0.55475 0.452921
151 1 0.449102 0.560863 0.45498
149 1 0.441555 0.583153 0.447916
150 1 0.445186 0.571561 0.450107
103 1 0.568326 0.571833 0.444242
104 1 0.562554 0.572413 0.455391
260 1 0.3698 0.596541 0.443633
261 1 0.358622 0.593094 0.442134
258 1 0.391287 0.602089 0.440563
259 1 0.380974 0.598613 0.443814
147 1 0.432059 0.6012 0.448603
148 1 0.436688 0.590453 0.445905
32 1 0.480971 0.586977 0.455924
33 1 0.483879 0.58789 0.447035
34 1 0.489016 0.591895 0.43754
388 1 0.261261 0.62486 0.441627
389 1 0.266663 0.617213 0.438242
146 1 0.431154 0.611181 0.454469
386 1 0.249128 0.643517 0.439744
387 1 0.255745 0.635271 0.443259
385 1 0.238667 0.650479 0.437667
82 1 0.424196 0.653497 0.450088
83 1 0.426705 0.650802 0.439024
297 1 0.363733 0.702535 0.438691
298 1 0.372354 0.70414 0.44447
299 1 0.38098 0.702825 0.449256
300 1 0.391208 0.701675 0.453687
301 1 0.40319 0.702668 0.456072
304 1 0.434944 0.704421 0.457736
305 1 0.443677 0.708438 0.452471
306 1 0.451294 0.714969 0.446359
307 1 0.457206 0.723305 0.440469
217 1 0.331069 0.462809 0.458494
214 1 0.349274 0.477863 0.47868
215 1 0.342817 0.473577 0.471471
216 1 0.337361 0.468858 0.463956
4 1 0.546749 0.46966 0.464043
5 1 0.55266 0.470827 0.473324
54 1 0.529625 0.494795 0.4595
55 1 0.535147 0.500708 0.466468
56 1 0.540409 0.507014 0.474808
399 1 0.318172 0.55206 0.463956
400 1 0.316691 0.553791 0.474491
152 1 0.45067 0.551187 0.462597
153 1 0.454147 0.542146 0.470397
30 1 0.479176 0.578464 0.47664
105 1 0.558714 0.57338 0.46479
106 1 0.551832 0.572714 0.471877
31 1 0.480218 0.584006 0.46807
483 1 0.16826 0.609189 0.478531
484 1 0.176776 0.613552 0.475036
485 1 0.18615 0.61905 0.473077
145 1 0.430719 0.620838 0.460303
486 1 0.195946 0.625391 0.474337
487 1 0.205381 0.629223 0.477353
488 1 0.212157 0.636945 0.47701
489 1 0.221079 0.643695 0.476676
142 1 0.428161 0.644651 0.478751
143 1 0.431227 0.634823 0.474956
144 1 0.431517 0.628434 0.467534
490 1 0.228724 0.651195 0.475514
491 1 0.235219 0.66109 0.473705
80 1 0.433993 0.654711 0.469403
81 1 0.427837 0.653829 0.460801
492 1 0.239236 0.671049 0.473248
493 1 0.240646 0.682444 0.474636
494 1 0.243382 0.693577 0.474589
495 1 0.242152 0.704043 0.472794
302 1 0.413756 0.700549 0.458605
303 1 0.424831 0.702125 0.459281
496 1 0.238832 0.712604 0.46918
497 1 0.231249 0.721567 0.466814
498 1 0.226725 0.731284 0.463845
499 1 0.220626 0.737931 0.458492
6 1 0.554991 0.473433 0.482781
7 1 0.563032 0.477012 0.493821
211 1 0.365826 0.499951 0.499723
212 1 0.360158 0.493309 0.491238
213 1 0.356406 0.485198 0.483055
446 1 0.248176 0.511382 0.498334
444 1 0.270236 0.516312 0.498793
445 1 0.259886 0.515025 0.498843
443 1 0.281089 0.520018 0.497974
57 1 0.540892 0.51088 0.485293
58 1 0.541109 0.517961 0.492921
154 1 0.455994 0.535016 0.479342
155 1 0.451484 0.530264 0.488839
156 1 0.449317 0.525349 0.498216
59 1 0.542714 0.526531 0.499734
401 1 0.31373 0.556886 0.482766
478 1 0.136406 0.570361 0.498665
479 1 0.138695 0.5801 0.49128
402 1 0.312846 0.565505 0.486751
403 1 0.31303 0.574521 0.489191
28 1 0.474042 0.569829 0.496288
29 1 0.476203 0.574081 0.486027
108 1 0.536226 0.577702 0.484193
109 1 0.528351 0.582745 0.489896
107 1 0.54521 0.573646 0.4797
480 1 0.143228 0.590127 0.488891
481 1 0.151174 0.594826 0.486632
482 1 0.15686 0.603926 0.484268
404 1 0.315313 0.585499 0.490163
405 1 0.316381 0.597163 0.488308
110 1 0.519257 0.586631 0.49688
407 1 0.308598 0.616827 0.484732
406 1 0.314347 0.608216 0.486866
408 1 0.304038 0.626338 0.483295
409 1 0.298646 0.63546 0.480599
411 1 0.290995 0.655632 0.488094
412 1 0.289739 0.665491 0.493838
410 1 0.293622 0.646413 0.48435
139 1 0.410551 0.663334 0.497595
140 1 0.415024 0.658592 0.488319
141 1 0.42322 0.653125 0.481947
77 1 0.45105 0.661589 0.496145
78 1 0.44609 0.660545 0.488559
79 1 0.440202 0.658143 0.47972
413 1 0.28974 0.673983 0.498101
8 1 0.569167 0.47828 0.505027
9 1 0.569712 0.480061 0.517934
449 1 0.224624 0.520337 0.512237
447 1 0.238958 0.511127 0.500719
448 1 0.23146 0.518212 0.505207
208 1 0.390368 0.52038 0.510847
209 1 0.382138 0.512352 0.508935
210 1 0.375093 0.505286 0.504906
450 1 0.218121 0.525672 0.518439
442 1 0.290131 0.523435 0.501583
440 1 0.303019 0.536783 0.511593
441 1 0.296977 0.531079 0.506218
206 1 0.402643 0.538064 0.514509
207 1 0.397534 0.528835 0.511503
157 1 0.444491 0.524128 0.508589
158 1 0.438982 0.523961 0.517113
60 1 0.542106 0.535652 0.501864
475 1 0.119744 0.552079 0.517854
476 1 0.124843 0.559112 0.511502
439 1 0.311588 0.541921 0.516287
205 1 0.406254 0.54655 0.520446
25 1 0.470831 0.546241 0.519237
26 1 0.470189 0.553489 0.511674
27 1 0.472253 0.561385 0.503951
61 1 0.540153 0.545944 0.508825
62 1 0.535942 0.55094 0.517917
477 1 0.131966 0.563376 0.505345
111 1 0.514745 0.589733 0.507226
112 1 0.508906 0.593762 0.514939
75 1 0.456362 0.653337 0.515748
76 1 0.454135 0.659508 0.50687
414 1 0.290811 0.685726 0.504261
137 1 0.401467 0.671467 0.517609
138 1 0.406029 0.667899 0.508266
415 1 0.295318 0.692383 0.510785
416 1 0.300422 0.696435 0.517949
10 1 0.570308 0.483082 0.527084
11 1 0.573407 0.488568 0.536315
162 1 0.394969 0.518977 0.528586
161 1 0.40516 0.517278 0.526771
160 1 0.417035 0.520679 0.526814
473 1 0.115073 0.539433 0.535998
451 1 0.211088 0.532814 0.521166
452 1 0.20936 0.54097 0.525796
165 1 0.370828 0.541454 0.530898
163 1 0.384948 0.52394 0.531886
164 1 0.377653 0.533361 0.533154
159 1 0.428919 0.521644 0.522692
24 1 0.47542 0.540822 0.526659
23 1 0.48055 0.537478 0.534617
474 1 0.116348 0.545808 0.526807
454 1 0.206129 0.556935 0.540361
453 1 0.208679 0.54952 0.533567
437 1 0.32386 0.548955 0.536432
438 1 0.318823 0.546669 0.525912
166 1 0.367153 0.551712 0.531375
167 1 0.365954 0.560264 0.53206
204 1 0.407568 0.556514 0.528003
63 1 0.530623 0.555461 0.525629
64 1 0.523546 0.561224 0.533016
168 1 0.364173 0.571186 0.53216
169 1 0.361233 0.582668 0.531685
203 1 0.406812 0.562886 0.536952
65 1 0.516856 0.568614 0.539334
170 1 0.359498 0.593895 0.531726
171 1 0.35739 0.603351 0.528743
114 1 0.49229 0.59203 0.529334
115 1 0.484997 0.590555 0.537738
113 1 0.501703 0.594253 0.523658
172 1 0.3494 0.612906 0.523849
173 1 0.343256 0.622418 0.521908
71 1 0.483918 0.623302 0.536533
187 1 0.270479 0.64335 0.535114
188 1 0.275517 0.633481 0.538836
174 1 0.337984 0.630855 0.523475
175 1 0.333978 0.640848 0.52528
72 1 0.476398 0.631985 0.531122
73 1 0.468051 0.640103 0.528726
185 1 0.276855 0.664348 0.537536
186 1 0.27131 0.65487 0.537062
176 1 0.330215 0.652734 0.530608
177 1 0.325743 0.663995 0.534722
74 1 0.461506 0.647603 0.525298
184 1 0.2805 0.672032 0.537206
178 1 0.324667 0.673684 0.540337
135 1 0.397333 0.678255 0.53813
136 1 0.397988 0.674173 0.527237
417 1 0.306092 0.699186 0.527109
418 1 0.310966 0.702395 0.536272
12 1 0.573345 0.492763 0.546544
13 1 0.569367 0.497398 0.555261
17 1 0.53359 0.516135 0.561155
14 1 0.56357 0.502281 0.561844
471 1 0.113084 0.531416 0.55598
472 1 0.112376 0.534655 0.545155
21 1 0.49616 0.533203 0.548055
22 1 0.485943 0.536145 0.542473
19 1 0.514805 0.527208 0.558484
20 1 0.504129 0.528719 0.553791
18 1 0.523757 0.52093 0.560269
435 1 0.331363 0.560487 0.555479
436 1 0.327218 0.552962 0.546174
455 1 0.202002 0.563489 0.550041
456 1 0.198034 0.571904 0.558321
201 1 0.396531 0.577302 0.546462
202 1 0.404852 0.569782 0.542164
117 1 0.470759 0.582512 0.552704
118 1 0.461728 0.576152 0.557333
66 1 0.510879 0.575216 0.544113
198 1 0.373404 0.602656 0.558209
199 1 0.380215 0.595338 0.554064
200 1 0.390123 0.585826 0.550207
116 1 0.477129 0.588447 0.546762
67 1 0.505799 0.584829 0.547595
68 1 0.500441 0.594793 0.547421
190 1 0.292289 0.621487 0.545344
191 1 0.303223 0.616885 0.541689
192 1 0.314293 0.61595 0.542702
193 1 0.324895 0.612147 0.544026
194 1 0.336365 0.611194 0.547773
195 1 0.346114 0.611954 0.553491
196 1 0.355337 0.61295 0.559467
197 1 0.365301 0.608831 0.560131
69 1 0.496615 0.605501 0.543367
70 1 0.489739 0.615744 0.54212
189 1 0.281663 0.627289 0.543349
182 1 0.291634 0.683991 0.550276
183 1 0.285046 0.677722 0.542498
180 1 0.31126 0.684345 0.553349
181 1 0.300275 0.6852 0.554663
179 1 0.318052 0.680155 0.546511
133 1 0.400564 0.681808 0.559166
134 1 0.398038 0.681903 0.550279
419 1 0.314237 0.703765 0.545557
420 1 0.314411 0.702617 0.557661
15 1 0.554109 0.508344 0.564371
16 1 0.543115 0.512375 0.565002
469 1 0.121059 0.530837 0.575338
470 1 0.114901 0.529246 0.565325
457 1 0.19558 0.576571 0.567473
458 1 0.189991 0.580328 0.577015
432 1 0.332886 0.581795 0.578211
433 1 0.333372 0.574687 0.572528
434 1 0.335088 0.565478 0.565561
119 1 0.453425 0.57696 0.563001
120 1 0.445186 0.577139 0.570568
121 1 0.440207 0.579669 0.580396
431 1 0.3304 0.591687 0.58207
422 1 0.320464 0.687148 0.574588
423 1 0.324415 0.677743 0.581166
131 1 0.408162 0.672471 0.577315
132 1 0.405366 0.677474 0.569509
421 1 0.315876 0.695248 0.566716
467 1 0.133917 0.538175 0.589381
468 1 0.12664 0.533331 0.584046
465 1 0.142852 0.557375 0.598252
466 1 0.140106 0.548318 0.593989
464 1 0.146433 0.564748 0.602013
459 1 0.187296 0.582828 0.585794
460 1 0.181029 0.581149 0.594706
461 1 0.174096 0.580849 0.603063
430 1 0.32581 0.601335 0.588615
122 1 0.432497 0.584589 0.585365
123 1 0.42566 0.592143 0.586371
124 1 0.421899 0.602961 0.59
428 1 0.323557 0.623325 0.594157
429 1 0.324232 0.612028 0.59194
126 1 0.41606 0.624533 0.597051
125 1 0.418549 0.612827 0.594792
426 1 0.32589 0.6445 0.58962
427 1 0.323629 0.634252 0.592431
127 1 0.41555 0.63554 0.597185
425 1 0.325696 0.655031 0.590824
128 1 0.413981 0.646298 0.596424
129 1 0.412222 0.65535 0.593347
130 1 0.410933 0.666037 0.587119
424 1 0.325213 0.667525 0.587224
462 1 0.163035 0.579323 0.605737
463 1 0.15385 0.572896 0.604322
ITEM: TIMESTEP
1000
ITEM: NUMBER OF ATOMS
499
ITEM: BOX BOUNDS pp pp pp
-5.0000000000000000e+01 5.0000000000000000e+01
-5.0000000000000000e+01 5.0000000000000000e+01
-5.0000000000000000e+01 5.0000000000000000e+01
ITEM: ATOMS id type xs ys zs
327 1 0.388003 0.738047 0.289415
325 1 0.409131 0.745908 0.288614
326 1 0.397577 0.741489 0.286959
233 1 0.337224 0.517559 0.310849
234 1 0.341972 0.525455 0.303346
235 1 0.349948 0.532758 0.296796
236 1 0.359002 0.537082 0.292316
237 1 0.371417 0.543236 0.294588
238 1 0.38012 0.547853 0.296917
239 1 0.387691 0.556216 0.298025
240 1 0.394486 0.562925 0.296989
241 1 0.40176 0.568359 0.297722
242 1 0.409878 0.576357 0.301779
243 1 0.415515 0.583655 0.305212
244 1 0.422851 0.590668 0.311491
338 1 0.337252 0.644554 0.307044
339 1 0.337518 0.636013 0.310605
336 1 0.338449 0.662996 0.304376
337 1 0.33628 0.653454 0.304962
334 1 0.341662 0.686324 0.305098
335 1 0.340128 0.674127 0.30514
332 1 0.347429 0.706078 0.30119
333 1 0.343265 0.697139 0.302419
331 1 0.352544 0.714705 0.299797
329 1 0.370237 0.724846 0.294775
330 1 0.360335 0.720199 0.29763
328 1 0.378263 0.731057 0.291895
322 1 0.434383 0.745479 0.305601
323 1 0.429049 0.747637 0.29783
324 1 0.419192 0.746431 0.292965
231 1 0.326777 0.505904 0.327552
232 1 0.332387 0.512261 0.318731
245 1 0.42554 0.597199 0.320112
367 1 0.216079 0.609597 0.332279
341 1 0.340892 0.620835 0.323243
342 1 0.341276 0.614497 0.331629
246 1 0.425116 0.604542 0.327654
340 1 0.339775 0.627326 0.31536
320 1 0.444844 0.746456 0.325277
321 1 0.440564 0.746811 0.314549
228 1 0.310513 0.490942 0.351484
229 1 0.315514 0.49707 0.341002
230 1 0.32137 0.499751 0.334121
362 1 0.228334 0.562807 0.352384
363 1 0.226004 0.573005 0.348426
364 1 0.224585 0.583945 0.34467
365 1 0.227289 0.593478 0.338515
366 1 0.222856 0.601933 0.334942
344 1 0.341639 0.596202 0.344599
345 1 0.339 0.586163 0.350431
368 1 0.207329 0.617116 0.333572
369 1 0.199875 0.623401 0.334561
343 1 0.340486 0.605828 0.338058
247 1 0.426099 0.611302 0.338564
248 1 0.42761 0.616328 0.348614
371 1 0.184974 0.637934 0.341054
370 1 0.19336 0.63126 0.336496
372 1 0.178863 0.646014 0.346769
373 1 0.174509 0.65263 0.353153
318 1 0.455155 0.747016 0.341898
319 1 0.449345 0.745072 0.334391
317 1 0.463028 0.746992 0.346984
226 1 0.305301 0.479727 0.370439
227 1 0.307732 0.485756 0.360912
359 1 0.246713 0.540531 0.364869
358 1 0.253635 0.533109 0.369309
45 1 0.511744 0.535864 0.371305
360 1 0.240781 0.548571 0.358726
361 1 0.235205 0.556282 0.356067
348 1 0.33298 0.558408 0.361746
349 1 0.327042 0.550727 0.366959
350 1 0.320651 0.544224 0.371764
43 1 0.51327 0.558298 0.362212
44 1 0.514076 0.546988 0.366181
346 1 0.33932 0.575574 0.354665
347 1 0.337183 0.566574 0.358006
41 1 0.510683 0.578802 0.36939
42 1 0.51207 0.567622 0.365116
249 1 0.426937 0.618299 0.36007
250 1 0.426031 0.618189 0.371911
375 1 0.166002 0.663406 0.369074
374 1 0.169859 0.658773 0.359857
315 1 0.47385 0.742945 0.366376
316 1 0.469754 0.743577 0.355699
224 1 0.301087 0.468836 0.387965
225 1 0.302574 0.474167 0.378446
47 1 0.515056 0.520611 0.388158
356 1 0.266717 0.522637 0.381509
357 1 0.259517 0.526788 0.375109
354 1 0.287829 0.525792 0.390506
355 1 0.276969 0.523506 0.387543
352 1 0.305175 0.531179 0.380327
353 1 0.297727 0.525827 0.388264
351 1 0.31361 0.537196 0.377183
46 1 0.513551 0.526526 0.379611
275 1 0.225663 0.589411 0.380245
276 1 0.215581 0.595881 0.380952
273 1 0.247252 0.58583 0.37806
274 1 0.236139 0.586533 0.376918
271 1 0.263143 0.596438 0.388276
272 1 0.256841 0.58906 0.38238
270 1 0.273394 0.598223 0.391874
39 1 0.508369 0.588453 0.388586
40 1 0.50701 0.585223 0.378489
277 1 0.20808 0.606338 0.381548
278 1 0.203446 0.614883 0.38345
279 1 0.20325 0.623565 0.389516
251 1 0.424 0.616281 0.381864
252 1 0.422659 0.611949 0.391926
93 1 0.509559 0.623073 0.3888
94 1 0.51737 0.616604 0.391191
95 1 0.525713 0.610414 0.393013
96 1 0.535498 0.607802 0.395712
280 1 0.20322 0.63206 0.39478
90 1 0.482332 0.638426 0.393444
91 1 0.49233 0.635456 0.390529
92 1 0.501914 0.631077 0.38875
376 1 0.165851 0.666541 0.378326
377 1 0.168161 0.667211 0.387954
313 1 0.478149 0.74026 0.386153
314 1 0.474608 0.740988 0.376749
222 1 0.307476 0.461979 0.409434
223 1 0.302267 0.462836 0.398285
48 1 0.513537 0.514304 0.397763
49 1 0.516175 0.509361 0.407763
50 1 0.517565 0.505771 0.416282
100 1 0.559162 0.580433 0.414862
269 1 0.284121 0.599371 0.396099
267 1 0.299356 0.592974 0.410093
268 1 0.293061 0.597167 0.402775
37 1 0.500417 0.595768 0.40719
38 1 0.505422 0.592992 0.398351
97 1 0.542736 0.603844 0.398058
98 1 0.550345 0.596576 0.402311
99 1 0.555431 0.588443 0.408003
253 1 0.420498 0.610098 0.402466
254 1 0.418384 0.610421 0.411608
281 1 0.208607 0.640912 0.398074
87 1 0.454642 0.640759 0.409506
88 1 0.46297 0.639782 0.402463
89 1 0.471038 0.639071 0.396209
378 1 0.174449 0.665331 0.397321
379 1 0.182235 0.663709 0.40627
380 1 0.190729 0.662861 0.414306
282 1 0.217368 0.647138 0.403126
283 1 0.228393 0.651248 0.405373
284 1 0.237338 0.654433 0.40957
285 1 0.244588 0.65926 0.414236
311 1 0.475577 0.736668 0.406707
312 1 0.475935 0.737929 0.396588
220 1 0.317138 0.456966 0.42833
221 1 0.311009 0.458919 0.418887
1 1 0.536723 0.463807 0.435506
51 1 0.521522 0.502819 0.426558
52 1 0.525452 0.502277 0.437183
396 1 0.31329 0.561955 0.433756
394 1 0.299807 0.576065 0.422899
395 1 0.305656 0.568087 0.426897
101 1 0.565156 0.575355 0.424314
102 1 0.567524 0.572066 0.433671
391 1 0.276617 0.600174 0.428499
392 1 0.283671 0.592324 0.424199
266 1 0.30763 0.589295 0.417363
393 1 0.292902 0.583464 0.423243
264 1 0.327135 0.588191 0.426687
265 1 0.315909 0.586459 0.423022
262 1 0.349226 0.594002 0.434668
263 1 0.338246 0.591783 0.429874
35 1 0.494734 0.598548 0.427935
36 1 0.497206 0.597578 0.416771
390 1 0.271618 0.608609 0.432431
255 1 0.415738 0.609538 0.421589
256 1 0.408028 0.608013 0.429836
257 1 0.400916 0.605946 0.436334
85 1 0.441615 0.644543 0.42398
86 1 0.447265 0.642404 0.41776
381 1 0.200601 0.663193 0.420902
382 1 0.20899 0.661425 0.426739
383 1 0.219658 0.659704 0.429915
384 1 0.229903 0.656996 0.434849
286 1 0.253288 0.663117 0.419843
287 1 0.261634 0.666567 0.423678
84 1 0.434664 0.648735 0.430572
288 1 0.268777 0.675014 0.424841
289 1 0.276572 0.681189 0.425873
290 1 0.284916 0.687186 0.425415
291 1 0.29433 0.692893 0.425725
292 1 0.305291 0.695704 0.4281
293 1 0.318488 0.698098 0.431772
294 1 0.329064 0.700909 0.432222
295 1 0.340797 0.700505 0.43425
296 1 0.351834 0.701404 0.437406
308 1 0.462624 0.730767 0.434789
309 1 0.46746 0.73508 0.426628
310 1 0.471797 0.737381 0.416821
218 1 0.325321 0.461306 0.448722
219 1 0.31964 0.458809 0.440025
2 1 0.538592 0.465528 0.44596
3 1 0.541262 0.467614 0.455544
53 1 0.526706 0.49752 0.448202
397 1 0.31674 0.555959 0.442013
398 1 0.317736 0.554735 0.45293
151 1 0.449098 0.560864 0.454985
149 1 0.441572 0.583118 0.447924
150 1 0.445187 0.571563 0.450111
103 1 0.568316 0.571834 0.44425
104 1 0.562561 0.572413 0.455379
260 1 0.369791 0.596525 0.443619
261 1 0.358636 0.59314 0.442067
258 1 0.39128 0.602093 0.440554
259 1 0.380966 0.598627 0.443781
147 1 0.432065 0.601198 0.448607
148 1 0.436671 0.590485 0.445905
32 1 0.480968 0.586971 0.455949
33 1 0.483888 0.587896 0.447018
34 1 0.48902 0.591902 0.437535
388 1 0.261223 0.624941 0.441631
389 1 0.266691 0.617157 0.438197
146 1 0.431155 0.61118 0.454469
386 1 0.249054 0.643531 0.439749
387 1 0.255743 0.635236 0.443209
385 1 0.238719 0.650451 0.437667
82 1 0.424204 0.653494 0.450087
83 1 0.426712 0.650802 0.439027
297 1 0.363664 0.702534 0.438718
298 1 0.372324 0.704123 0.444446
299 1 0.381043 0.702819 0.449279
300 1 0.39125 0.701698 0.453673
301 1 0.403147 0.702638 0.456067
304 1 0.434949 0.704439 0.457701
305 1 0.44368 0.708471 0.452453
306 1 0.451277 0.714989 0.44636
307 1 0.45719 0.723281 0.440482
217 1 0.331067 0.462812 0.458486
214 1 0.349277 0.477867 0.478678
215 1 0.342819 0.473577 0.471471
216 1 0.337361 0.468858 0.463958
4 1 0.546751 0.46966 0.464047
5 1 0.552654 0.470828 0.473319
54 1 0.529627 0.494805 0.459491
55 1 0.535149 0.500711 0.466472
56 1 0.540403 0.50701 0.474809
399 1 0.318155 0.5521 0.463934
400 1 0.31672 0.553759 0.474357
152 1 0.450673 0.551188 0.462597
153 1 0.454144 0.542151 0.470397
30 1 0.479174 0.578464 0.476643
105 1 0.558714 0.573379 0.464786
106 1 0.551829 0.572715 0.47188
31 1 0.480218 0.584006 0.468057
483 1 0.168101 0.609118 0.478616
484 1 0.176811 0.613576 0.475038
485 1 0.186167 0.619067 0.473108
145 1 0.430721 0.620833 0.460302
486 1 0.195916 0.625355 0.474347
487 1 0.20535 0.62924 0.477328
488 1 0.212199 0.636961 0.477009
489 1 0.221059 0.643693 0.476669
142 1 0.42816 0.644647 0.47875
143 1 0.431223 0.634832 0.474958
144 1 0.431516 0.628428 0.467529
490 1 0.228731 0.65124 0.475504
491 1 0.235182 0.661063 0.473721
80 1 0.433997 0.654716 0.469412
81 1 0.427838 0.653829 0.460796
492 1 0.239217 0.671083 0.473266
493 1 0.240658 0.682439 0.474622
494 1 0.243345 0.69355 0.474576
495 1 0.242152 0.703987 0.472797
302 1 0.413764 0.700583 0.458589
303 1 0.424799 0.702126 0.459264
496 1 0.23876 0.712675 0.469165
497 1 0.23129 0.721559 0.466812
498 1 0.226724 0.731242 0.463835
499 1 0.220669 0.737884 0.458529
6 1 0.555012 0.473441 0.482806
7 1 0.56302 0.477004 0.493809
211 1 0.365831 0.499949 0.499717
212 1 0.360161 0.493307 0.491239
213 1 0.356403 0.485201 0.483062
446 1 0.248323 0.511424 0.498337
444 1 0.270271 0.51634 0.498785
445 1 0.259823 0.514992 0.498837
443 1 0.281039 0.520003 0.498005
57 1 0.540892 0.510882 0.485287
58 1 0.541111 0.517965 0.492922
154 1 0.455986 0.53502 0.479343
155 1 0.451488 0.530265 0.488837
156 1 0.449313 0.525353 0.49822
59 1 0.542712 0.526515 0.499724
401 1 0.313715 0.556887 0.482806
478 1 0.136399 0.570425 0.498627
479 1 0.13871 0.580078 0.491346
402 1 0.312843 0.565475 0.486746
403 1 0.313053 0.574672 0.489213
28 1 0.474042 0.569824 0.496285
29 1 0.476203 0.57408 0.48603
108 1 0.536227 0.577704 0.484195
109 1 0.528347 0.582745 0.4899
107 1 0.545205 0.57365 0.479698
480 1 0.14317 0.590024 0.488918
481 1 0.151239 0.594915 0.486606
482 1 0.157017 0.603942 0.484184
404 1 0.315303 0.585519 0.490135
405 1 0.31635 0.597145 0.488314
110 1 0.519265 0.58663 0.496884
407 1 0.308605 0.616836 0.484737
406 1 0.314323 0.608174 0.486864
408 1 0.304026 0.626344 0.483283
409 1 0.29863 0.635518 0.48067
411 1 0.290999 0.655671 0.488127
412 1 0.289751 0.665382 0.493775
410 1 0.293669 0.646333 0.484326
139 1 0.410549 0.663335 0.4976
140 1 0.415029 0.658591 0.488322
141 1 0.423213 0.653126 0.481953
77 1 0.451062 0.661588 0.496171
78 1 0.446076 0.66054 0.488537
79 1 0.440198 0.658141 0.479713
413 1 0.289757 0.674174 0.498201
8 1 0.569157 0.478281 0.505031
9 1 0.569711 0.480057 0.51791
449 1 0.22461 0.520364 0.512249
447 1 0.238874 0.511193 0.500765
448 1 0.231501 0.518155 0.505196
208 1 0.390366 0.52038 0.510845
209 1 0.382141 0.512355 0.508934
210 1 0.375087 0.505286 0.504903
450 1 0.21812 0.525682 0.518414
442 1 0.290138 0.523486 0.501604
440 1 0.303076 0.536811 0.511617
441 1 0.296932 0.531026 0.506192
206 1 0.402641 0.538063 0.514513
207 1 0.397532 0.528835 0.511505
157 1 0.444494 0.524129 0.508582
158 1 0.438972 0.523958 0.517114
60 1 0.542103 0.535675 0.501877
475 1 0.119752 0.552075 0.517891
476 1 0.124847 0.559082 0.511515
439 1 0.311611 0.54194 0.516377
205 1 0.406252 0.546557 0.520451
25 1 0.470834 0.546243 0.519236
26 1 0.470193 0.553492 0.511672
27 1 0.472253 0.561386 0.503951
61 1 0.540151 0.545934 0.508824
62 1 0.535942 0.550938 0.517912
477 1 0.131955 0.563403 0.505333
111 1 0.514746 0.589732 0.507219
112 1 0.508903 0.593759 0.514942
75 1 0.456367 0.653335 0.515752
76 1 0.454134 0.659503 0.506867
414 1 0.290824 0.685591 0.50421
137 1 0.401469 0.671465 0.517608
138 1 0.406031 0.667896 0.50826
415 1 0.295293 0.692343 0.510748
416 1 0.300469 0.696457 0.518026
10 1 0.570312 0.483089 0.527095
11 1 0.573404 0.488566 0.536316
162 1 0.394965 0.518982 0.528589
161 1 0.405169 0.517285 0.526773
160 1 0.417037 0.520675 0.526807
473 1 0.115064 0.539456 0.535982
451 1 0.211136 0.532757 0.521142
452 1 0.209351 0.541066 0.525879
165 1 0.370831 0.541457 0.530901
163 1 0.384951 0.523947 0.531884
164 1 0.377656 0.533356 0.53315
159 1 0.428913 0.521646 0.522691
24 1 0.475419 0.540824 0.526657
23 1 0.480547 0.53748 0.534612
474 1 0.11637 0.545809 0.526806
454 1 0.206097 0.556964 0.540431
453 1 0.208669 0.549484 0.533535
437 1 0.323837 0.548967 0.536408
438 1 0.318777 0.546629 0.525892
166 1 0.367163 0.551659 0.531371
167 1 0.365946 0.560319 0.532064
204 1 0.407565 0.556505 0.528001
63 1 0.530618 0.555465 0.525632
64 1 0.523547 0.561226 0.533015
168 1 0.364171 0.571189 0.532159
169 1 0.361235 0.582666 0.531686
203 1 0.406819 0.562857 0.536926
65 1 0.516861 0.568608 0.539329
170 1 0.359499 0.593887 0.531724
171 1 0.357375 0.603364 0.528735
114 1 0.492292 0.592031 0.529337
115 1 0.484994 0.590554 0.537741
113 1 0.5017 0.594249 0.523654
172 1 0.349409 0.612898 0.523857
173 1 0.34326 0.62241 0.521911
71 1 0.483912 0.623308 0.536531
187 1 0.270487 0.643353 0.535122
188 1 0.275512 0.633492 0.538832
174 1 0.337983 0.630861 0.523476
175 1 0.333974 0.640863 0.52529
72 1 0.476399 0.631982 0.531128
73 1 0.468057 0.640099 0.528726
185 1 0.276825 0.664286 0.537538
186 1 0.271315 0.654866 0.53706
176 1 0.330216 0.652727 0.530603
177 1 0.325749 0.663987 0.534722
74 1 0.461505 0.647605 0.525287
184 1 0.280514 0.672071 0.537191
178 1 0.324661 0.67368 0.540337
135 1 0.397335 0.678256 0.538136
136 1 0.39799 0.674176 0.527242
417 1 0.306082 0.699188 0.527103
418 1 0.310937 0.702373 0.536229
12 1 0.573341 0.492763 0.546541
13 1 0.569368 0.497397 0.555256