LAMMPS data file via write_data, version 2 Aug 2023, timestep = 250000, units = lj

10 atoms
1 atom types
9 bonds
1 bond types
5 ellipsoids

-20 20 xlo xhi
-20 20 ylo yhi
-20 20 zlo zhi

Masses

1 1

Atoms # hybrid

2 1 4.560035071549522 -3.2715547228494612 -5.054349254556578 1 0 238.7324039657 0 0 0
4 1 5.163929254103132 -3.076302588755611 -4.00181672794219 1 0 238.7324039657 0 0 0
3 1 4.575470126456248 -3.899644400138288 -4.185975809862168 1 0 238.7324039657 0 0 0
1 1 3.9402995235284966 -2.986250556288579 -4.281729328894246 1 0 238.7324039657 0 0 0
5 1 4.4321041150148295 -2.4049092437511876 -3.3757413574441255 1 0 238.7324039657 0 0 0
8 1 4.5761925488130375 -3.600289434341852 -1.6373358119202652 1 1 238.7324039657 0 0 0
6 1 4.692414272229515 -3.221974919145359 -2.970450610960174 1 1 238.7324039657 0 0 0
7 1 4.150340246582448 -3.76944677901295 -2.437085695421057 1 1 238.7324039657 0 0 0
10 1 5.564347987020121 -1.9476740367649614 -1.2515382572890548 1 1 238.7324039657 0 0 0
9 1 5.535139788891766 -2.994081021174836 -1.74592263662346 1 1 238.7324039657 0 0 0

Velocities

2 0.05036609354852452 -0.08343955742412168 -0.01579013088156182 0 0 0
4 0.0213483669486231 0.01676321959402986 -0.10806686794030011 0 0 0
3 -0.03994683653644613 0.146224165820523 0.07556284018946982 0 0 0
1 -0.020335202764397382 0.06428335711237555 0.1238447265660566 0 0 0
5 0.015138534163128168 -0.20958651589789806 0.03826691352876967 0 0 0
8 -0.6801804246185943 -0.06794885245051278 -0.774301511192035 0 0 0
6 -0.5414431004283742 -0.37593740571025436 -0.4029776612360463 0 0 0
7 0.5909116140152485 0.38216466052502024 -0.27683933741902034 0 0 0
10 0.05060821187917117 0.5465470812839749 0.3664247670716989 0 0 0
9 0.3771165525222549 0.017508241024470947 0.21819223309459942 0 0 0

Bonds

1 1 2 3
2 1 4 5
3 1 3 4
4 1 1 2
5 1 5 6
6 1 8 9
7 1 6 7
8 1 7 8
9 1 9 10

Ellipsoids

8 1 0.5 0.5 0.923785244892942 0 0.38291098354328656 0
6 0.5 0.5 1 1 0 0 0
7 0.5 1 0.5 0.923785244892942 0.38291098354328656 0 0
10 0.5 1 0.5 0 0.7071067811865475 0 0.7071067811865475
9 0.5 0.5 1 0.923785244892942 0 0 0.38291098354328656
