LAMMPS (10 Sep 2025 - Development - patch_10Sep2025-446-g1f97b96b3b-modified)
KOKKOS mode with Kokkos version 4.7.1 is enabled
  using double precision
  using view layout = default
  will use up to 1 GPU(s) per node
WARNING: Turning off GPU-aware MPI since it is not detected, use '-pk kokkos gpu/aware on' to override (src/KOKKOS/kokkos.cpp:343)
  using 2 OpenMP thread(s) per MPI task
package kokkos
###
# Box and units  (use LJ units and periodic boundaries)
###

units lj

atom_style ellipsoid

boundary        p p p

neighbor 1.5 bin
neigh_modify every 1 delay 0 check yes

#read_data lmp_data
read_data lmp_data_ordered
Reading data file ...
  orthogonal box = (-2 -2 -5) to (2 2 5)
  1 by 2 by 4 MPI processor grid
  reading atoms ...
  8 atoms
  reading velocities ...
  8 velocities
  8 ellipsoids
  read_data CPU = 0.161 seconds

reset_timestep 0

######################

group all type 1
8 atoms in group all
group polymer type 1
8 atoms in group polymer

###
# Dump configs + box coords
###
compute q all property/atom quatw quati quatj quatk
compute diameter all property/atom shapex shapey shapez
dump 1 all custom 1 dump.polymer id type x y z c_q[1] c_q[2] c_q[3] c_q[4] c_diameter[1] c_diameter[2] c_diameter[3]
dump_modify 1 colname c_q[1] quatw colname c_q[2] quati colname c_q[3] quatj colname c_q[4] quatk
dump_modify 1 colname c_diameter[1] shapex colname c_diameter[2] shapey colname c_diameter[3] shapez
#dump   1   all   custom   100000   polymer.dump.*  id x y z  ix iy iz
#dump_modify   1   format line "%d %.5f %.5f %.5f %d %d %d"
#dump   id all atom 1000 dump.polymer

###################################################################
# Stiffness term
#
# E = K * (theta-thera0)**2, K>0
#
#angle_style   harmonic
#angle_coeff   1 2.0 120.0
###################################################################

###################################################################
# Pair interaction between non-bonded atoms
#
#  Lennard-Jones 12-6 potential with cutoff:
#  potential E=4epsilon[ (sigma/r)^12 - (sigma/r)^6]  for r<r_cut
#
#  1.12246152962189 = 2^(1/6) is the minimum of the potential

pair_style      lj/cut 1.12246152962189

#
#  pair_coeff for lj/cut, specify 4:
#    * atom type interacting with
#    * atom type
#    * epsilon (energy units)
#    * sigma (distance units)
#

pair_coeff      1 1 1.0 1.0

#
#  pair_modify shift yes adds a constant to the potential such
#  that E(r_cut)=0. Forces remains unchanged.
#

pair_modify     shift yes

###################################################

#comm_modify cutoff 6
#comm_style tiled
#balance 1.2 rcb

###
# Set up fixes
###

fix 1 all   nve   ###NVE ensemble

compute ekin all ke
compute epot all pe
variable ekin equal c_ekin
variable epot equal c_epot
variable etot equal c_ekin+c_epot

fix 2 all print 1 "$(step)  ekin = ${ekin} | epot = ${epot} | etot = ${etot}" screen yes

##### Sample thermodynamic info  (temperature, energy, pressure, etc.) #####
#thermo 10000
#thermo_style   custom   step  temp  epair  emol  press pxx pyy pzz  vol
############################################################################

timestep 0.001

run 10000
Generated 0 of 0 mixed pair_coeff terms from geometric mixing rule
Neighbor list info ...
  update: every = 1 steps, delay = 0 steps, check = yes
  max neighbors/atom: 2000, page size: 100000
  master list distance cutoff = 2.6224615
  ghost atom cutoff = 2.6224615
  binsize = 2.6224615, bins = 2 2 4
  1 neighbor lists, perpetual/occasional/extra = 1 0 0
  (1) pair lj/cut/kk, perpetual
      attributes: full, newton off, kokkos_device
      pair build: full/bin/kk/device
      stencil: full/bin/3d
      bin: kk/device
0  ekin = 12499.9994412079 | epot = 6.99999999994619 | etot = 12506.9994412078
Per MPI rank memory allocation (min/avg/max) = 6.581 | 6.583 | 6.585 Mbytes
   Step          Temp          E_pair         E_mol          TotEng         Press     
         0   1190.4761      0.875          0              1563.3749      52.433331    
1  ekin = 12499.9994596398 | epot = 6.9999815680126 | etot = 12506.9994412078
2  ekin = 12499.9995149343 | epot = 6.99992627328767 | etot = 12506.9994412076
3  ekin = 12499.9996070882 | epot = 6.99983411899863 | etot = 12506.9994412072
4  ekin = 12499.9997360962 | epot = 6.99970511052363 | etot = 12506.9994412068
5  ekin = 12499.9999019508 | epot = 6.99953925539079 | etot = 12506.9994412062
6  ekin = 12500.0001046421 | epot = 6.99933656327683 | etot = 12506.9994412054
7  ekin = 12500.0003441585 | epot = 6.99909704600551 | etot = 12506.9994412046
8  ekin = 12500.000620486 | epot = 6.99882071754549 | etot = 12506.9994412035
9  ekin = 12500.0009336084 | epot = 6.99850759400801 | etot = 12506.9994412024
10  ekin = 12500.0012835075 | epot = 6.99815769364402 | etot = 12506.9994412011
11  ekin = 12500.0016701629 | epot = 6.99777103684111 | etot = 12506.9994411997
12  ekin = 12500.0020935521 | epot = 6.99734764611991 | etot = 12506.9994411982
13  ekin = 12500.0025536504 | epot = 6.99688754613029 | etot = 12506.9994411965
14  ekin = 12500.0030504311 | epot = 6.99639076364709 | etot = 12506.9994411947
15  ekin = 12500.0035838652 | epot = 6.99585732756544 | etot = 12506.9994411928
16  ekin = 12500.0041539218 | epot = 6.99528726889589 | etot = 12506.9994411907
17  ekin = 12500.0047605677 | epot = 6.99468062075905 | etot = 12506.9994411885
18  ekin = 12500.0054037678 | epot = 6.9940374183798 | etot = 12506.9994411862
19  ekin = 12500.0060834846 | epot = 6.99335769908137 | etot = 12506.9994411837
20  ekin = 12500.0067996788 | epot = 6.99264150227885 | etot = 12506.9994411811
21  ekin = 12500.0075523089 | epot = 6.99188886947243 | etot = 12506.9994411784
22  ekin = 12500.0083413313 | epot = 6.99109984424031 | etot = 12506.9994411755
23  ekin = 12500.0091667003 | epot = 6.99027447223122 | etot = 12506.9994411726
24  ekin = 12500.0100283683 | epot = 6.98941280115663 | etot = 12506.9994411694
25  ekin = 12500.0109262854 | epot = 6.98851488078253 | etot = 12506.9994411662
26  ekin = 12500.0118603999 | epot = 6.98758076292102 | etot = 12506.9994411628
27  ekin = 12500.0128306579 | epot = 6.98661050142132 | etot = 12506.9994411594
28  ekin = 12500.0138370036 | epot = 6.98560415216076 | etot = 12506.9994411557
29  ekin = 12500.014879379 | epot = 6.98456177303508 | etot = 12506.999441152
30  ekin = 12500.0159577242 | epot = 6.98348342394871 | etot = 12506.9994411481
31  ekin = 12500.0170719773 | epot = 6.98236916680455 | etot = 12506.9994411441
32  ekin = 12500.0182220745 | epot = 6.98121906549341 | etot = 12506.99944114
33  ekin = 12500.0194079499 | epot = 6.98003318588325 | etot = 12506.9994411358
34  ekin = 12500.0206295356 | epot = 6.9788115958079 | etot = 12506.9994411314
35  ekin = 12500.0218867619 | epot = 6.97755436505574 | etot = 12506.999441127
36  ekin = 12500.023179557 | epot = 6.97626156535781 | etot = 12506.9994411224
37  ekin = 12500.0245078473 | epot = 6.97493327037565 | etot = 12506.9994411176
38  ekin = 12500.0258715571 | epot = 6.97356955568902 | etot = 12506.9994411128
39  ekin = 12500.0272706091 | epot = 6.9721704987831 | etot = 12506.9994411079
40  ekin = 12500.0287049238 | epot = 6.97073617903547 | etot = 12506.9994411028
41  ekin = 12500.0301744199 | epot = 6.96926667770283 | etot = 12506.9994410976
42  ekin = 12500.0316790144 | epot = 6.96776207790732 | etot = 12506.9994410923
43  ekin = 12500.0332186223 | epot = 6.96622246462269 | etot = 12506.9994410869
44  ekin = 12500.0347931567 | epot = 6.96464792466009 | etot = 12506.9994410814
45  ekin = 12500.0364025291 | epot = 6.96303854665356 | etot = 12506.9994410757
46  ekin = 12500.0380466489 | epot = 6.9613944210453 | etot = 12506.99944107
47  ekin = 12500.039725424 | epot = 6.9597156400707 | etot = 12506.9994410641
48  ekin = 12500.0414387604 | epot = 6.95800229774294 | etot = 12506.9994410581
49  ekin = 12500.0431865622 | epot = 6.95625448983751 | etot = 12506.9994410521
50  ekin = 12500.044968732 | epot = 6.95447231387636 | etot = 12506.9994410459
51  ekin = 12500.0467851705 | epot = 6.95265586911183 | etot = 12506.9994410396
52  ekin = 12500.0486357767 | epot = 6.9508052565103 | etot = 12506.9994410332
53  ekin = 12500.0505204479 | epot = 6.94892057873562 | etot = 12506.9994410267
54  ekin = 12500.0524390799 | epot = 6.94700194013229 | etot = 12506.9994410201
55  ekin = 12500.0543915666 | epot = 6.94504944670837 | etot = 12506.9994410134
56  ekin = 12500.0563778004 | epot = 6.94306320611823 | etot = 12506.9994410065
57  ekin = 12500.058397672 | epot = 6.94104332764494 | etot = 12506.9994409996
58  ekin = 12500.0604510705 | epot = 6.93898992218263 | etot = 12506.9994409926
59  ekin = 12500.0625378833 | epot = 6.93690310221838 | etot = 12506.9994409855
60  ekin = 12500.0646579965 | epot = 6.93478298181418 | etot = 12506.9994409783
61  ekin = 12500.0668112944 | epot = 6.93262967658836 | etot = 12506.999440971
62  ekin = 12500.06899766 | epot = 6.93044330369715 | etot = 12506.9994409637
63  ekin = 12500.0712169744 | epot = 6.92822398181575 | etot = 12506.9994409562
64  ekin = 12500.0734691175 | epot = 6.92597183111937 | etot = 12506.9994409486
65  ekin = 12500.0757539677 | epot = 6.92368697326405 | etot = 12506.9994409409
66  ekin = 12500.0780714018 | epot = 6.92136953136727 | etot = 12506.9994409332
67  ekin = 12500.0804212954 | epot = 6.91901962998839 | etot = 12506.9994409254
68  ekin = 12500.0828035223 | epot = 6.91663739510886 | etot = 12506.9994409174
69  ekin = 12500.0852179553 | epot = 6.91422295411241 | etot = 12506.9994409094
70  ekin = 12500.0876644656 | epot = 6.91177643576495 | etot = 12506.9994409013
71  ekin = 12500.090142923 | epot = 6.9092979701943 | etot = 12506.9994408932
72  ekin = 12500.092653196 | epot = 6.90678768886979 | etot = 12506.9994408849
73  ekin = 12500.095195152 | epot = 6.90424572458182 | etot = 12506.9994408766
74  ekin = 12500.0977686567 | epot = 6.90167221142108 | etot = 12506.9994408682
75  ekin = 12500.1003735749 | epot = 6.89906728475779 | etot = 12506.9994408597
76  ekin = 12500.1030097699 | epot = 6.89643108122076 | etot = 12506.9994408511
77  ekin = 12500.1056771038 | epot = 6.89376373867624 | etot = 12506.9994408425
78  ekin = 12500.1083754376 | epot = 6.89106539620681 | etot = 12506.9994408338
79  ekin = 12500.1111046309 | epot = 6.88833619408999 | etot = 12506.999440825
80  ekin = 12500.1138645424 | epot = 6.88557627377684 | etot = 12506.9994408161
81  ekin = 12500.1166550293 | epot = 6.88278577787042 | etot = 12506.9994408072
82  ekin = 12500.1194759481 | epot = 6.87996485010417 | etot = 12506.9994407982
83  ekin = 12500.1223271539 | epot = 6.87711363532016 | etot = 12506.9994407892
84  ekin = 12500.1252085006 | epot = 6.87423227944725 | etot = 12506.9994407801
85  ekin = 12500.1281198414 | epot = 6.87132092947918 | etot = 12506.9994407709
86  ekin = 12500.1310610282 | epot = 6.86837973345262 | etot = 12506.9994407616
87  ekin = 12500.1340319119 | epot = 6.86540884042511 | etot = 12506.9994407523
88  ekin = 12500.1370323425 | epot = 6.86240840045286 | etot = 12506.999440743
89  ekin = 12500.140062169 | epot = 6.85937856456865 | etot = 12506.9994407336
90  ekin = 12500.1431212393 | epot = 6.85631948475951 | etot = 12506.9994407241
91  ekin = 12500.1462094006 | epot = 6.85323131394441 | etot = 12506.9994407146
92  ekin = 12500.149326499 | epot = 6.85011420595196 | etot = 12506.999440705
93  ekin = 12500.1524723798 | epot = 6.84696831549801 | etot = 12506.9994406953
94  ekin = 12500.1556468875 | epot = 6.84379379816316 | etot = 12506.9994406857
95  ekin = 12500.1588498656 | epot = 6.84059081037035 | etot = 12506.9994406759
96  ekin = 12500.1620811568 | epot = 6.83735950936236 | etot = 12506.9994406662
97  ekin = 12500.1653406032 | epot = 6.83410005317929 | etot = 12506.9994406563
98  ekin = 12500.1686280458 | epot = 6.83081260063607 | etot = 12506.9994406465
99  ekin = 12500.1719433253 | epot = 6.82749731129984 | etot = 12506.9994406366
100  ekin = 12500.1752862811 | epot = 6.82415434546757 | etot = 12506.9994406266
101  ekin = 12500.1786567525 | epot = 6.82078386414331 | etot = 12506.9994406166
102  ekin = 12500.1820545776 | epot = 6.81738602901583 | etot = 12506.9994406066
103  ekin = 12500.1854795941 | epot = 6.813961002436 | etot = 12506.9994405965
104  ekin = 12500.188931639 | epot = 6.81050894739433 | etot = 12506.9994405864
105  ekin = 12500.1924105488 | epot = 6.80703002749839 | etot = 12506.9994405763
106  ekin = 12500.1959161592 | epot = 6.80352440695051 | etot = 12506.9994405661
107  ekin = 12500.1994483054 | epot = 6.79999225052516 | etot = 12506.9994405559
108  ekin = 12500.2030068221 | epot = 6.79643372354669 | etot = 12506.9994405457
109  ekin = 12500.2065915436 | epot = 6.79284899186686 | etot = 12506.9994405354
110  ekin = 12500.2102023033 | epot = 6.78923822184264 | etot = 12506.9994405252
111  ekin = 12500.2138389345 | epot = 6.78560158031382 | etot = 12506.9994405148
112  ekin = 12500.2175012699 | epot = 6.78193923458094 | etot = 12506.9994405045
113  ekin = 12500.2211891418 | epot = 6.77825135238296 | etot = 12506.9994404942
114  ekin = 12500.2249023819 | epot = 6.77453810187531 | etot = 12506.9994404838
115  ekin = 12500.2286408218 | epot = 6.77079965160782 | etot = 12506.9994404734
116  ekin = 12500.2324042925 | epot = 6.76703617050278 | etot = 12506.999440463
117  ekin = 12500.2361926247 | epot = 6.76324782783304 | etot = 12506.9994404525
118  ekin = 12500.2400056489 | epot = 6.75943479320029 | etot = 12506.9994404421
119  ekin = 12500.2438431951 | epot = 6.75559723651322 | etot = 12506.9994404316
120  ekin = 12500.2477050932 | epot = 6.75173532796604 | etot = 12506.9994404211
121  ekin = 12500.2515911726 | epot = 6.74784923801691 | etot = 12506.9994404107
122  ekin = 12500.2555012628 | epot = 6.74393913736649 | etot = 12506.9994404002
123  ekin = 12500.2594351927 | epot = 6.74000519693665 | etot = 12506.9994403897
124  ekin = 12500.2633927913 | epot = 6.73604758784927 | etot = 12506.9994403791
125  ekin = 12500.2673738872 | epot = 6.73206648140511 | etot = 12506.9994403686
126  ekin = 12500.271378309 | epot = 6.72806204906281 | etot = 12506.9994403581
127  ekin = 12500.2754058851 | epot = 6.72403446241811 | etot = 12506.9994403476
128  ekin = 12500.2794564439 | epot = 6.71998389318297 | etot = 12506.999440337
129  ekin = 12500.2835298133 | epot = 6.71591051316511 | etot = 12506.9994403265
130  ekin = 12500.2876258217 | epot = 6.71181449424734 | etot = 12506.999440316
131  ekin = 12500.2917442971 | epot = 6.70769600836738 | etot = 12506.9994403054
132  ekin = 12500.2958850674 | epot = 6.7035552274975 | etot = 12506.9994402949
133  ekin = 12500.3000479608 | epot = 6.69939232362458 | etot = 12506.9994402844
134  ekin = 12500.3042328052 | epot = 6.69520746873006 | etot = 12506.9994402739
135  ekin = 12500.3084394286 | epot = 6.69100083477022 | etot = 12506.9994402634
136  ekin = 12500.3126676592 | epot = 6.68677259365655 | etot = 12506.9994402529
137  ekin = 12500.3169173251 | epot = 6.68252291723624 | etot = 12506.9994402424
138  ekin = 12500.3211882546 | epot = 6.67825197727289 | etot = 12506.9994402319
139  ekin = 12500.325480276 | epot = 6.67395994542736 | etot = 12506.9994402214
140  ekin = 12500.3297932177 | epot = 6.66964699323872 | etot = 12506.999440211
141  ekin = 12500.3341269084 | epot = 6.66531329210547 | etot = 12506.9994402005
142  ekin = 12500.3384811768 | epot = 6.66095901326691 | etot = 12506.9994401901
143  ekin = 12500.3428558519 | epot = 6.65658432778458 | etot = 12506.9994401797
144  ekin = 12500.3472507628 | epot = 6.65218940652402 | etot = 12506.9994401693
145  ekin = 12500.3516657388 | epot = 6.64777442013657 | etot = 12506.9994401589
146  ekin = 12500.3561006095 | epot = 6.64333953904151 | etot = 12506.9994401486
147  ekin = 12500.3605552048 | epot = 6.63888493340822 | etot = 12506.9994401382
148  ekin = 12500.3650293548 | epot = 6.63441077313862 | etot = 12506.9994401279
149  ekin = 12500.3695228898 | epot = 6.62991722784982 | etot = 12506.9994401176
150  ekin = 12500.3740356405 | epot = 6.6254044668568 | etot = 12506.9994401074
151  ekin = 12500.378567438 | epot = 6.62087265915561 | etot = 12506.9994400971
152  ekin = 12500.3831181135 | epot = 6.61632197340631 | etot = 12506.9994400869
153  ekin = 12500.3876874988 | epot = 6.61175257791656 | etot = 12506.9994400767
154  ekin = 12500.392275426 | epot = 6.6071646406251 | etot = 12506.9994400666
155  ekin = 12500.3968817274 | epot = 6.60255832908555 | etot = 12506.9994400565
156  ekin = 12500.4015062359 | epot = 6.5979338104504 | etot = 12506.9994400464
157  ekin = 12500.4061487848 | epot = 6.59329125145524 | etot = 12506.9994400363
158  ekin = 12500.4108092079 | epot = 6.5886308184031 | etot = 12506.9994400263
159  ekin = 12500.4154873391 | epot = 6.58395267714915 | etot = 12506.9994400163
160  ekin = 12500.4201830132 | epot = 6.57925699308539 | etot = 12506.9994400063
161  ekin = 12500.4248960652 | epot = 6.57454393112584 | etot = 12506.9994399964
162  ekin = 12500.4296263308 | epot = 6.5698136556916 | etot = 12506.9994399865
163  ekin = 12500.4343736459 | epot = 6.56506633069654 | etot = 12506.9994399766
164  ekin = 12500.4391378473 | epot = 6.56030211953272 | etot = 12506.9994399668
165  ekin = 12500.4439187719 | epot = 6.55552118505654 | etot = 12506.999439957
166  ekin = 12500.4487162577 | epot = 6.55072368957461 | etot = 12506.9994399473
167  ekin = 12500.4535301427 | epot = 6.54590979483029 | etot = 12506.9994399376
168  ekin = 12500.4583602659 | epot = 6.5410796619901 | etot = 12506.9994399279
169  ekin = 12500.4632064667 | epot = 6.53623345163057 | etot = 12506.9994399183
170  ekin = 12500.468068585 | epot = 6.53137132372522 | etot = 12506.9994399087
171  ekin = 12500.4729464615 | epot = 6.52649343763176 | etot = 12506.9994398992
172  ekin = 12500.4778399376 | epot = 6.52159995207955 | etot = 12506.9994398897
173  ekin = 12500.4827488551 | epot = 6.51669102515726 | etot = 12506.9994398802
174  ekin = 12500.4876730565 | epot = 6.51176681430082 | etot = 12506.9994398708
175  ekin = 12500.4926123852 | epot = 6.50682747628147 | etot = 12506.9994398615
176  ekin = 12500.497566685 | epot = 6.50187316719413 | etot = 12506.9994398522
177  ekin = 12500.5025358005 | epot = 6.49690404244599 | etot = 12506.9994398429
178  ekin = 12500.507519577 | epot = 6.49192025674532 | etot = 12506.9994398337
179  ekin = 12500.5125178605 | epot = 6.48692196409048 | etot = 12506.9994398246
180  ekin = 12500.5175304977 | epot = 6.48190931775916 | etot = 12506.9994398155
181  ekin = 12500.5225573361 | epot = 6.47688247029794 | etot = 12506.9994398064
182  ekin = 12500.5275982239 | epot = 6.47184157351191 | etot = 12506.9994397974
183  ekin = 12500.53265301 | epot = 6.46678677845471 | etot = 12506.9994397885
184  ekin = 12500.5377215441 | epot = 6.46171823541862 | etot = 12506.9994397796
185  ekin = 12500.5428036768 | epot = 6.45663609392502 | etot = 12506.9994397707
186  ekin = 12500.5478992592 | epot = 6.45154050271498 | etot = 12506.9994397619
187  ekin = 12500.5530081434 | epot = 6.44643160974011 | etot = 12506.9994397532
188  ekin = 12500.5581301823 | epot = 6.44130956215372 | etot = 12506.9994397445
189  ekin = 12500.5632652296 | epot = 6.43617450630204 | etot = 12506.9994397359
190  ekin = 12500.5684131396 | epot = 6.43102658771579 | etot = 12506.9994397273
191  ekin = 12500.5735737677 | epot = 6.42586595110197 | etot = 12506.9994397188
192  ekin = 12500.57874697 | epot = 6.42069274033581 | etot = 12506.9994397103
193  ekin = 12500.5839326034 | epot = 6.41550709845305 | etot = 12506.9994397019
194  ekin = 12500.5891305259 | epot = 6.41030916764228 | etot = 12506.9994396935
195  ekin = 12500.594340596 | epot = 6.40509908923773 | etot = 12506.9994396853
196  ekin = 12500.5995626733 | epot = 6.39987700371203 | etot = 12506.999439677
197  ekin = 12500.6047966182 | epot = 6.39464305066945 | etot = 12506.9994396689
198  ekin = 12500.6100422919 | epot = 6.38939736883912 | etot = 12506.9994396607
199  ekin = 12500.6152995566 | epot = 6.38414009606867 | etot = 12506.9994396527
200  ekin = 12500.6205682754 | epot = 6.37887136931796 | etot = 12506.9994396447
201  ekin = 12500.6258483121 | epot = 6.37359132465309 | etot = 12506.9994396368
202  ekin = 12500.6311395316 | epot = 6.36830009724058 | etot = 12506.9994396289
203  ekin = 12500.6364417997 | epot = 6.36299782134185 | etot = 12506.9994396211
204  ekin = 12500.641754983 | epot = 6.35768463030789 | etot = 12506.9994396133
205  ekin = 12500.6470789491 | epot = 6.35236065657401 | etot = 12506.9994396056
206  ekin = 12500.6524135663 | epot = 6.34702603165498 | etot = 12506.999439598
207  ekin = 12500.6577587043 | epot = 6.34168088614036 | etot = 12506.9994395904
208  ekin = 12500.6631142332 | epot = 6.33632534968994 | etot = 12506.9994395829
209  ekin = 12500.6684800245 | epot = 6.33095955102941 | etot = 12506.9994395755
210  ekin = 12500.6738559502 | epot = 6.32558361794639 | etot = 12506.9994395681
211  ekin = 12500.6792418835 | epot = 6.32019767728646 | etot = 12506.9994395608
212  ekin = 12500.6846376986 | epot = 6.31480185494953 | etot = 12506.9994395535
213  ekin = 12500.6900432705 | epot = 6.30939627588635 | etot = 12506.9994395463
214  ekin = 12500.6954584751 | epot = 6.30398106409523 | etot = 12506.9994395392
215  ekin = 12500.7008831895 | epot = 6.29855634261907 | etot = 12506.9994395322
216  ekin = 12500.7063172916 | epot = 6.29312223354232 | etot = 12506.9994395251
217  ekin = 12500.7117606602 | epot = 6.28767885798853 | etot = 12506.9994395182
218  ekin = 12500.7172131752 | epot = 6.28222633611769 | etot = 12506.9994395113
219  ekin = 12500.7226747174 | epot = 6.27676478712404 | etot = 12506.9994395045
220  ekin = 12500.7281451686 | epot = 6.27129432923402 | etot = 12506.9994394978
221  ekin = 12500.7336244114 | epot = 6.26581507970425 | etot = 12506.9994394911
222  ekin = 12500.7391123297 | epot = 6.26032715481997 | etot = 12506.9994394845
223  ekin = 12500.744608808 | epot = 6.25483066989343 | etot = 12506.9994394779
224  ekin = 12500.7501137322 | epot = 6.24932573926259 | etot = 12506.9994394715
225  ekin = 12500.7556269887 | epot = 6.24381247628995 | etot = 12506.999439465
226  ekin = 12500.7611484653 | epot = 6.23829099336162 | etot = 12506.9994394587
227  ekin = 12500.7666780505 | epot = 6.23276140188651 | etot = 12506.9994394524
228  ekin = 12500.7722156338 | epot = 6.22722381229567 | etot = 12506.9994394461
229  ekin = 12500.7777611059 | epot = 6.22167833404195 | etot = 12506.99943944
230  ekin = 12500.7833143583 | epot = 6.21612507559968 | etot = 12506.9994394339
231  ekin = 12500.7888752834 | epot = 6.21056414446459 | etot = 12506.9994394278
232  ekin = 12500.7944437747 | epot = 6.20499564715386 | etot = 12506.9994394219
233  ekin = 12500.8000197267 | epot = 6.19941968920642 | etot = 12506.9994394159
234  ekin = 12500.8056030349 | epot = 6.19383637518332 | etot = 12506.9994394101
235  ekin = 12500.8111935957 | epot = 6.18824580866837 | etot = 12506.9994394043
236  ekin = 12500.8167913063 | epot = 6.18264809226875 | etot = 12506.9994393986
237  ekin = 12500.8223960653 | epot = 6.17704332761602 | etot = 12506.9994393929
238  ekin = 12500.828007772 | epot = 6.17143161536713 | etot = 12506.9994393874
239  ekin = 12500.8336263266 | epot = 6.16581305520561 | etot = 12506.9994393818
240  ekin = 12500.8392516305 | epot = 6.16018774584295 | etot = 12506.9994393764
241  ekin = 12500.8448835859 | epot = 6.15455578502012 | etot = 12506.999439371
242  ekin = 12500.8505220961 | epot = 6.14891726950919 | etot = 12506.9994393656
243  ekin = 12500.8561670652 | epot = 6.14327229511515 | etot = 12506.9994393604
244  ekin = 12500.8618183985 | epot = 6.13762095667784 | etot = 12506.9994393551
245  ekin = 12500.8674760019 | epot = 6.13196334807406 | etot = 12506.99943935
246  ekin = 12500.8731397827 | epot = 6.12629956221979 | etot = 12506.9994393449
247  ekin = 12500.8788096488 | epot = 6.12062969107251 | etot = 12506.9994393399
248  ekin = 12500.8844855093 | epot = 6.11495382563376 | etot = 12506.9994393349
249  ekin = 12500.8901672741 | epot = 6.10927205595173 | etot = 12506.99943933
250  ekin = 12500.8958548541 | epot = 6.10358447112399 | etot = 12506.9994393252
251  ekin = 12500.9015481611 | epot = 6.09789115930044 | etot = 12506.9994393204
252  ekin = 12500.907247108 | epot = 6.09219220768624 | etot = 12506.9994393157
253  ekin = 12500.9129516085 | epot = 6.08648770254505 | etot = 12506.999439311
254  ekin = 12500.9186615772 | epot = 6.08077772920215 | etot = 12506.9994393064
255  ekin = 12500.9243769299 | epot = 6.07506237204791 | etot = 12506.9994393019
256  ekin = 12500.9300975829 | epot = 6.06934171454125 | etot = 12506.9994392974
257  ekin = 12500.9358234538 | epot = 6.0636158392132 | etot = 12506.999439293
258  ekin = 12500.941554461 | epot = 6.05788482767065 | etot = 12506.9994392887
259  ekin = 12500.9472905238 | epot = 6.05214876060021 | etot = 12506.9994392844
260  ekin = 12500.9530315624 | epot = 6.04640771777199 | etot = 12506.9994392801
261  ekin = 12500.9587774979 | epot = 6.04066177804384 | etot = 12506.999439276
262  ekin = 12500.9645282525 | epot = 6.03491101936527 | etot = 12506.9994392718
263  ekin = 12500.970283749 | epot = 6.02915551878185 | etot = 12506.9994392678
264  ekin = 12500.9760439113 | epot = 6.02339535243942 | etot = 12506.9994392638
265  ekin = 12500.9818086642 | epot = 6.01763059558858 | etot = 12506.9994392598
266  ekin = 12500.9875779334 | epot = 6.01186132258923 | etot = 12506.9994392559
267  ekin = 12500.9933516452 | epot = 6.00608760691505 | etot = 12506.9994392521
268  ekin = 12500.9991297272 | epot = 6.00030952115836 | etot = 12506.9994392483
269  ekin = 12501.0049121076 | epot = 5.99452713703477 | etot = 12506.9994392446
270  ekin = 12501.0106987156 | epot = 5.98874052538812 | etot = 12506.999439241
271  ekin = 12501.0164894811 | epot = 5.9829497561954 | etot = 12506.9994392373
272  ekin = 12501.0222843352 | epot = 5.97715489857175 | etot = 12506.9994392338
273  ekin = 12501.0280832095 | epot = 5.97135602077564 | etot = 12506.9994392303
274  ekin = 12501.0338860366 | epot = 5.96555319021392 | etot = 12506.9994392268
275  ekin = 12501.03969275 | epot = 5.95974647344719 | etot = 12506.9994392235
276  ekin = 12501.0455032839 | epot = 5.95393593619508 | etot = 12506.9994392201
277  ekin = 12501.0513175735 | epot = 5.94812164334159 | etot = 12506.9994392168
278  ekin = 12501.0571355547 | epot = 5.94230365894059 | etot = 12506.9994392136
279  ekin = 12501.0629571642 | epot = 5.93648204622133 | etot = 12506.9994392104
280  ekin = 12501.0687823397 | epot = 5.93065686759401 | etot = 12506.9994392073
281  ekin = 12501.0746110196 | epot = 5.92482818465543 | etot = 12506.9994392042
282  ekin = 12501.080443143 | epot = 5.91899605819466 | etot = 12506.9994392012
283  ekin = 12501.08627865 | epot = 5.9131605481988 | etot = 12506.9994391982
284  ekin = 12501.0921174815 | epot = 5.90732171385878 | etot = 12506.9994391953
285  ekin = 12501.0979595789 | epot = 5.90147961357524 | etot = 12506.9994391925
286  ekin = 12501.1038048847 | epot = 5.89563430496438 | etot = 12506.9994391896
287  ekin = 12501.109653342 | epot = 5.88978584486397 | etot = 12506.9994391869
288  ekin = 12501.1155048948 | epot = 5.88393428933928 | etot = 12506.9994391841
289  ekin = 12501.1213594878 | epot = 5.87807969368917 | etot = 12506.9994391815
290  ekin = 12501.1272170664 | epot = 5.87222211245213 | etot = 12506.9994391788
291  ekin = 12501.1330775768 | epot = 5.86636159941241 | etot = 12506.9994391763
292  ekin = 12501.1389409661 | epot = 5.86049820760619 | etot = 12506.9994391737
293  ekin = 12501.1448071819 | epot = 5.85463198932771 | etot = 12506.9994391712
294  ekin = 12501.1506761727 | epot = 5.84876299613559 | etot = 12506.9994391688
295  ekin = 12501.1565478876 | epot = 5.84289127885894 | etot = 12506.9994391664
296  ekin = 12501.1624222765 | epot = 5.8370168876038 | etot = 12506.9994391641
297  ekin = 12501.16829929 | epot = 5.83113987175933 | etot = 12506.9994391618
298  ekin = 12501.1741788795 | epot = 5.82526028000418 | etot = 12506.9994391595
299  ekin = 12501.180060997 | epot = 5.81937816031285 | etot = 12506.9994391573
300  ekin = 12501.1859455952 | epot = 5.81349355996209 | etot = 12506.9994391551
301  ekin = 12501.1918326275 | epot = 5.80760652553724 | etot = 12506.999439153
302  ekin = 12501.197722048 | epot = 5.8017171029387 | etot = 12506.9994391509
303  ekin = 12501.2036138115 | epot = 5.79582533738834 | etot = 12506.9994391489
304  ekin = 12501.2095078734 | epot = 5.78993127343596 | etot = 12506.9994391469
305  ekin = 12501.2154041899 | epot = 5.78403495496574 | etot = 12506.9994391449
306  ekin = 12501.2213027178 | epot = 5.77813642520269 | etot = 12506.999439143
307  ekin = 12501.2272034144 | epot = 5.77223572671921 | etot = 12506.9994391411
308  ekin = 12501.2331062378 | epot = 5.76633290144149 | etot = 12506.9994391393
309  ekin = 12501.2390111468 | epot = 5.76042799065604 | etot = 12506.9994391375
310  ekin = 12501.2449181007 | epot = 5.75452103501622 | etot = 12506.9994391357
311  ekin = 12501.2508270595 | epot = 5.7486120745487 | etot = 12506.999439134
312  ekin = 12501.2567379837 | epot = 5.74270114866001 | etot = 12506.9994391323
313  ekin = 12501.2626508346 | epot = 5.736788296143 | etot = 12506.9994391307
314  ekin = 12501.2685655739 | epot = 5.73087355518338 | etot = 12506.9994391291
315  ekin = 12501.2744821642 | epot = 5.72495696336622 | etot = 12506.9994391275
316  ekin = 12501.2804005683 | epot = 5.71903855768242 | etot = 12506.999439126
317  ekin = 12501.28632075 | epot = 5.71311837453526 | etot = 12506.9994391245
318  ekin = 12501.2922426733 | epot = 5.70719644974682 | etot = 12506.9994391231
319  ekin = 12501.2981663031 | epot = 5.70127281856449 | etot = 12506.9994391216
320  ekin = 12501.3040916046 | epot = 5.69534751566746 | etot = 12506.9994391202
321  ekin = 12501.3100185437 | epot = 5.68942057517314 | etot = 12506.9994391189
322  ekin = 12501.3159470869 | epot = 5.68349203064361 | etot = 12506.9994391176
323  ekin = 12501.3218772012 | epot = 5.67756191509208 | etot = 12506.9994391163
324  ekin = 12501.3278088541 | epot = 5.67163026098927 | etot = 12506.999439115
325  ekin = 12501.3337420136 | epot = 5.66569710026984 | etot = 12506.9994391138
326  ekin = 12501.3396766483 | epot = 5.65976246433874 | etot = 12506.9994391126
327  ekin = 12501.3456127274 | epot = 5.65382638407764 | etot = 12506.9994391115
328  ekin = 12501.3515502205 | epot = 5.64788888985117 | etot = 12506.9994391104
329  ekin = 12501.3574890978 | epot = 5.64195001151332 | etot = 12506.9994391093
330  ekin = 12501.3634293298 | epot = 5.63600977841377 | etot = 12506.9994391082
331  ekin = 12501.3693708878 | epot = 5.63006821940405 | etot = 12506.9994391072
332  ekin = 12501.3753137433 | epot = 5.62412536284392 | etot = 12506.9994391062
333  ekin = 12501.3812578686 | epot = 5.61818123660754 | etot = 12506.9994391052
334  ekin = 12501.3872032362 | epot = 5.61223586808965 | etot = 12506.9994391043
335  ekin = 12501.3931498192 | epot = 5.60628928421182 | etot = 12506.9994391034
336  ekin = 12501.3990975911 | epot = 5.60034151142854 | etot = 12506.9994391025
337  ekin = 12501.4050465259 | epot = 5.59439257573333 | etot = 12506.9994391016
338  ekin = 12501.4109965981 | epot = 5.58844250266489 | etot = 12506.9994391008
339  ekin = 12501.4169477827 | epot = 5.58249131731309 | etot = 12506.9994391
340  ekin = 12501.4229000549 | epot = 5.57653904432506 | etot = 12506.9994390992
341  ekin = 12501.4288533906 | epot = 5.57058570791112 | etot = 12506.9994390985
342  ekin = 12501.4348077659 | epot = 5.5646313318508 | etot = 12506.9994390978
343  ekin = 12501.4407631576 | epot = 5.55867593949872 | etot = 12506.9994390971
344  ekin = 12501.4467195426 | epot = 5.55271955379049 | etot = 12506.9994390964
345  ekin = 12501.4526768985 | epot = 5.54676219724861 | etot = 12506.9994390957
346  ekin = 12501.4586352031 | epot = 5.54080389198821 | etot = 12506.9994390951
347  ekin = 12501.4645944348 | epot = 5.53484465972291 | etot = 12506.9994390945
348  ekin = 12501.4705545722 | epot = 5.52888452177051 | etot = 12506.999439094
349  ekin = 12501.4765155943 | epot = 5.5229234990587 | etot = 12506.9994390934
350  ekin = 12501.4824774807 | epot = 5.51696161213076 | etot = 12506.9994390929
351  ekin = 12501.4884402112 | epot = 5.51099888115115 | etot = 12506.9994390924
352  ekin = 12501.494403766 | epot = 5.50503532591111 | etot = 12506.9994390919
353  ekin = 12501.5003681256 | epot = 5.49907096583419 | etot = 12506.9994390914
354  ekin = 12501.506333271 | epot = 5.49310581998177 | etot = 12506.999439091
355  ekin = 12501.5122991835 | epot = 5.48713990705854 | etot = 12506.9994390906
356  ekin = 12501.5182658448 | epot = 5.48117324541783 | etot = 12506.9994390902
357  ekin = 12501.5242332367 | epot = 5.47520585306712 | etot = 12506.9994390898
358  ekin = 12501.5302013418 | epot = 5.4692377476732 | etot = 12506.9994390894
359  ekin = 12501.5361701425 | epot = 5.46326894656763 | etot = 12506.9994390891
360  ekin = 12501.542139622 | epot = 5.45729946675186 | etot = 12506.9994390888
361  ekin = 12501.5481097636 | epot = 5.45132932490248 | etot = 12506.9994390885
362  ekin = 12501.5540805508 | epot = 5.44535853737636 | etot = 12506.9994390882
363  ekin = 12501.5600519677 | epot = 5.43938712021574 | etot = 12506.9994390879
364  ekin = 12501.5660239985 | epot = 5.4334150891533 | etot = 12506.9994390877
365  ekin = 12501.5719966278 | epot = 5.4274424596172 | etot = 12506.9994390875
366  ekin = 12501.5779698405 | epot = 5.42146924673598 | etot = 12506.9994390873
367  ekin = 12501.5839436217 | epot = 5.41549546534355 | etot = 12506.9994390871
368  ekin = 12501.5899179569 | epot = 5.409521129984 | etot = 12506.9994390869
369  ekin = 12501.5958928318 | epot = 5.40354625491647 | etot = 12506.9994390867
370  ekin = 12501.6018682325 | epot = 5.39757085411991 | etot = 12506.9994390866
371  ekin = 12501.6078441452 | epot = 5.39159494129779 | etot = 12506.9994390865
372  ekin = 12501.6138205565 | epot = 5.38561852988279 | etot = 12506.9994390863
373  ekin = 12501.6197974532 | epot = 5.37964163304144 | etot = 12506.9994390862
374  ekin = 12501.6257748225 | epot = 5.3736642636787 | etot = 12506.9994390862
375  ekin = 12501.6317526516 | epot = 5.36768643444249 | etot = 12506.9994390861
376  ekin = 12501.6377309283 | epot = 5.36170815772815 | etot = 12506.999439086
377  ekin = 12501.6437096403 | epot = 5.3557294456829 | etot = 12506.999439086
378  ekin = 12501.6496887758 | epot = 5.34975031021023 | etot = 12506.999439086
379  ekin = 12501.655668323 | epot = 5.34377076297422 | etot = 12506.999439086
380  ekin = 12501.6616482706 | epot = 5.33779081540384 | etot = 12506.999439086
381  ekin = 12501.6676286073 | epot = 5.33181047869718 | etot = 12506.999439086
382  ekin = 12501.6736093222 | epot = 5.3258297638256 | etot = 12506.999439086
383  ekin = 12501.6795904045 | epot = 5.31984868153797 | etot = 12506.999439086
384  ekin = 12501.6855718437 | epot = 5.31386724236466 | etot = 12506.9994390861
385  ekin = 12501.6915536295 | epot = 5.30788545662158 | etot = 12506.9994390862
386  ekin = 12501.6975357518 | epot = 5.30190333441426 | etot = 12506.9994390862
387  ekin = 12501.7035182007 | epot = 5.2959208856417 | etot = 12506.9994390863
388  ekin = 12501.7095009664 | epot = 5.28993812000031 | etot = 12506.9994390864
389  ekin = 12501.7154840395 | epot = 5.28395504698773 | etot = 12506.9994390865
390  ekin = 12501.7214674107 | epot = 5.27797167590661 | etot = 12506.9994390866
391  ekin = 12501.7274510709 | epot = 5.27198801586837 | etot = 12506.9994390868
392  ekin = 12501.7334350111 | epot = 5.26600407579691 | etot = 12506.9994390869
393  ekin = 12501.7394192226 | epot = 5.26001986443224 | etot = 12506.9994390871
394  ekin = 12501.7454036969 | epot = 5.25403539033404 | etot = 12506.9994390872
395  ekin = 12501.7513884255 | epot = 5.24805066188528 | etot = 12506.9994390874
396  ekin = 12501.7573734003 | epot = 5.24206568729565 | etot = 12506.9994390876
397  ekin = 12501.7633586131 | epot = 5.23608047460505 | etot = 12506.9994390877
398  ekin = 12501.7693440563 | epot = 5.23009503168698 | etot = 12506.9994390879
399  ekin = 12501.7753297219 | epot = 5.22410936625188 | etot = 12506.9994390881
400  ekin = 12501.7813156025 | epot = 5.21812348585047 | etot = 12506.9994390884
401  ekin = 12501.7873016907 | epot = 5.21213739787696 | etot = 12506.9994390886
402  ekin = 12501.7932879792 | epot = 5.20615110957233 | etot = 12506.9994390888
403  ekin = 12501.799274461 | epot = 5.20016462802739 | etot = 12506.999439089
404  ekin = 12501.8052611291 | epot = 5.19417796018602 | etot = 12506.9994390893
405  ekin = 12501.8112479767 | epot = 5.18819111284814 | etot = 12506.9994390895
406  ekin = 12501.8172349971 | epot = 5.18220409267278 | etot = 12506.9994390898
407  ekin = 12501.8232221839 | epot = 5.17621690618105 | etot = 12506.9994390901
408  ekin = 12501.8292095306 | epot = 5.17022955975905 | etot = 12506.9994390903
409  ekin = 12501.835197031 | epot = 5.1642420596608 | etot = 12506.9994390906
410  ekin = 12501.8411846789 | epot = 5.15825441201106 | etot = 12506.9994390909
411  ekin = 12501.8471724684 | epot = 5.1522666228081 | etot = 12506.9994390912
412  ekin = 12501.8531603936 | epot = 5.14627869792645 | etot = 12506.9994390915
413  ekin = 12501.8591484487 | epot = 5.14029064311967 | etot = 12506.9994390918
414  ekin = 12501.8651366281 | epot = 5.13430246402293 | etot = 12506.9994390921
415  ekin = 12501.8711249263 | epot = 5.12831416615568 | etot = 12506.9994390924
416  ekin = 12501.8771133378 | epot = 5.12232575492421 | etot = 12506.9994390927
417  ekin = 12501.8831018574 | epot = 5.11633723562419 | etot = 12506.9994390931
418  ekin = 12501.88909048 | epot = 5.11034861344312 | etot = 12506.9994390934
419  ekin = 12501.8950792003 | epot = 5.10435989346283 | etot = 12506.9994390937
420  ekin = 12501.9010680134 | epot = 5.09837108066185 | etot = 12506.9994390941
421  ekin = 12501.9070569145 | epot = 5.09238217991779 | etot = 12506.9994390944
422  ekin = 12501.9130458988 | epot = 5.08639319600963 | etot = 12506.9994390948
423  ekin = 12501.9190349615 | epot = 5.08040413362005 | etot = 12506.9994390951
424  ekin = 12501.9250240982 | epot = 5.07441499733763 | etot = 12506.9994390955
425  ekin = 12501.9310133042 | epot = 5.06842579165906 | etot = 12506.9994390959
426  ekin = 12501.9370025752 | epot = 5.06243652099132 | etot = 12506.9994390962
427  ekin = 12501.9429919069 | epot = 5.05644718965375 | etot = 12506.9994390966
428  ekin = 12501.9489812951 | epot = 5.0504578018802 | etot = 12506.999439097
429  ekin = 12501.9549707355 | epot = 5.04446836182102 | etot = 12506.9994390973
430  ekin = 12501.9609602242 | epot = 5.03847887354508 | etot = 12506.9994390977
431  ekin = 12501.9669497571 | epot = 5.03248934104175 | etot = 12506.9994390981
432  ekin = 12501.9729393303 | epot = 5.02649976822282 | etot = 12506.9994390985
433  ekin = 12501.97892894 | epot = 5.02051015892438 | etot = 12506.9994390989
434  ekin = 12501.9849185824 | epot = 5.01452051690872 | etot = 12506.9994390993
435  ekin = 12501.9909082538 | epot = 5.00853084586607 | etot = 12506.9994390997
436  ekin = 12501.9968979507 | epot = 5.00254114941649 | etot = 12506.9994391001
437  ekin = 12502.0028876694 | epot = 4.99655143111154 | etot = 12506.9994391005
438  ekin = 12502.0088774065 | epot = 4.99056169443603 | etot = 12506.9994391009
439  ekin = 12502.0148671585 | epot = 4.98457194280969 | etot = 12506.9994391013
440  ekin = 12502.0208569221 | epot = 4.97858217958882 | etot = 12506.9994391017
441  ekin = 12502.0268466941 | epot = 4.97259240806792 | etot = 12506.9994391021
442  ekin = 12502.0328364711 | epot = 4.96660263148124 | etot = 12506.9994391026
443  ekin = 12502.03882625 | epot = 4.96061285300433 | etot = 12506.999439103
444  ekin = 12502.0448160276 | epot = 4.95462307575562 | etot = 12506.9994391034
445  ekin = 12502.050805801 | epot = 4.94863330279782 | etot = 12506.9994391038
446  ekin = 12502.0567955671 | epot = 4.94264353713942 | etot = 12506.9994391042
447  ekin = 12502.0627853229 | epot = 4.93665378173611 | etot = 12506.9994391047
448  ekin = 12502.0687750656 | epot = 4.93066403949216 | etot = 12506.9994391051
449  ekin = 12502.0747647923 | epot = 4.9246743132618 | etot = 12506.9994391055
450  ekin = 12502.0807545001 | epot = 4.91868460585055 | etot = 12506.9994391059
451  ekin = 12502.0867441864 | epot = 4.91269492001649 | etot = 12506.9994391064
452  ekin = 12502.0927338483 | epot = 4.90670525847162 | etot = 12506.9994391068
453  ekin = 12502.0987234834 | epot = 4.900715623883 | etot = 12506.9994391072
454  ekin = 12502.1047130888 | epot = 4.89472601887408 | etot = 12506.9994391077
455  ekin = 12502.1107026621 | epot = 4.88873644602582 | etot = 12506.9994391081
456  ekin = 12502.1166922007 | epot = 4.88274690787788 | etot = 12506.9994391086
457  ekin = 12502.1226817021 | epot = 4.87675740692976 | etot = 12506.999439109
458  ekin = 12502.1286711638 | epot = 4.87076794564192 | etot = 12506.9994391094
459  ekin = 12502.1346605834 | epot = 4.86477852643689 | etot = 12506.9994391099
460  ekin = 12502.1406499586 | epot = 4.85878915170027 | etot = 12506.9994391103
461  ekin = 12502.146639287 | epot = 4.85279982378189 | etot = 12506.9994391108
462  ekin = 12502.1526285662 | epot = 4.84681054499667 | etot = 12506.9994391112
463  ekin = 12502.158617794 | epot = 4.84082131762576 | etot = 12506.9994391116
464  ekin = 12502.1646069682 | epot = 4.83483214391742 | etot = 12506.9994391121
465  ekin = 12502.1705960864 | epot = 4.82884302608802 | etot = 12506.9994391125
466  ekin = 12502.1765851467 | epot = 4.82285396632291 | etot = 12506.999439113
467  ekin = 12502.1825741466 | epot = 4.81686496677743 | etot = 12506.9994391134
468  ekin = 12502.1885630843 | epot = 4.81087602957763 | etot = 12506.9994391139
469  ekin = 12502.1945519575 | epot = 4.80488715682132 | etot = 12506.9994391143
470  ekin = 12502.2005407642 | epot = 4.79889835057873 | etot = 12506.9994391148
471  ekin = 12502.2065295023 | epot = 4.79290961289351 | etot = 12506.9994391152
472  ekin = 12502.2125181699 | epot = 4.78692094578336 | etot = 12506.9994391157
473  ekin = 12502.2185067649 | epot = 4.78093235124094 | etot = 12506.9994391161
474  ekin = 12502.2244952853 | epot = 4.77494383123461 | etot = 12506.9994391165
475  ekin = 12502.2304837293 | epot = 4.76895538770912 | etot = 12506.999439117
476  ekin = 12502.2364720949 | epot = 4.7629670225864 | etot = 12506.9994391174
477  ekin = 12502.2424603801 | epot = 4.75697873776623 | etot = 12506.9994391179
478  ekin = 12502.2484485832 | epot = 4.75099053512695 | etot = 12506.9994391183
479  ekin = 12502.2544367023 | epot = 4.74500241652618 | etot = 12506.9994391188
480  ekin = 12502.2604247354 | epot = 4.73901438380139 | etot = 12506.9994391192
481  ekin = 12502.2664126809 | epot = 4.73302643877061 | etot = 12506.9994391197
482  ekin = 12502.2724005369 | epot = 4.72703858323307 | etot = 12506.9994391201
483  ekin = 12502.2783883016 | epot = 4.72105081896976 | etot = 12506.9994391206
484  ekin = 12502.2843759733 | epot = 4.71506314774405 | etot = 12506.999439121
485  ekin = 12502.2903635502 | epot = 4.70907557130232 | etot = 12506.9994391215
486  ekin = 12502.2963510305 | epot = 4.70308809137449 | etot = 12506.9994391219
487  ekin = 12502.3023384127 | epot = 4.69710070967453 | etot = 12506.9994391224
488  ekin = 12502.3083256949 | epot = 4.69111342790114 | etot = 12506.9994391228
489  ekin = 12502.3143128755 | epot = 4.68512624773812 | etot = 12506.9994391232
490  ekin = 12502.3202999528 | epot = 4.67913917085503 | etot = 12506.9994391237
491  ekin = 12502.3262869252 | epot = 4.67315219890761 | etot = 12506.9994391241
492  ekin = 12502.332273791 | epot = 4.6671653335383 | etot = 12506.9994391246
493  ekin = 12502.3382605486 | epot = 4.66117857637674 | etot = 12506.999439125
494  ekin = 12502.3442471964 | epot = 4.65519192904019 | etot = 12506.9994391255
495  ekin = 12502.3502337328 | epot = 4.64920539313408 | etot = 12506.9994391259
496  ekin = 12502.3562201561 | epot = 4.64321897025239 | etot = 12506.9994391264
497  ekin = 12502.3622064648 | epot = 4.6372326619781 | etot = 12506.9994391268
498  ekin = 12502.3681926573 | epot = 4.63124646988366 | etot = 12506.9994391272
499  ekin = 12502.3741787321 | epot = 4.62526039553136 | etot = 12506.9994391277
500  ekin = 12502.3801646876 | epot = 4.61927444047384 | etot = 12506.9994391281
501  ekin = 12502.3861505223 | epot = 4.61328860625432 | etot = 12506.9994391285
502  ekin = 12502.3921362346 | epot = 4.60730289440717 | etot = 12506.999439129
503  ekin = 12502.398121823 | epot = 4.60131730645823 | etot = 12506.9994391294
504  ekin = 12502.4041072859 | epot = 4.59533184392517 | etot = 12506.9994391299
505  ekin = 12502.410092622 | epot = 4.58934650831789 | etot = 12506.9994391303
506  ekin = 12502.4160778296 | epot = 4.58336130113891 | etot = 12506.9994391307
507  ekin = 12502.4220629073 | epot = 4.57737622388363 | etot = 12506.9994391312
508  ekin = 12502.4280478536 | epot = 4.57139127804082 | etot = 12506.9994391316
509  ekin = 12502.4340326669 | epot = 4.56540646509283 | etot = 12506.999439132
510  ekin = 12502.4400173459 | epot = 4.55942178651605 | etot = 12506.9994391325
511  ekin = 12502.4460018891 | epot = 4.55343724378118 | etot = 12506.9994391329
512  ekin = 12502.451986295 | epot = 4.54745283835352 | etot = 12506.9994391333
513  ekin = 12502.4579705621 | epot = 4.54146857169339 | etot = 12506.9994391337
514  ekin = 12502.4639546889 | epot = 4.53548444525634 | etot = 12506.9994391342
515  ekin = 12502.4699386741 | epot = 4.5295004604936 | etot = 12506.9994391346
516  ekin = 12502.4759225162 | epot = 4.52351661885223 | etot = 12506.999439135
517  ekin = 12502.4819062137 | epot = 4.51753292177556 | etot = 12506.9994391355
518  ekin = 12502.4878897652 | epot = 4.51154937070338 | etot = 12506.9994391359
519  ekin = 12502.4938731692 | epot = 4.50556596707231 | etot = 12506.9994391363
520  ekin = 12502.4998564244 | epot = 4.49958271231609 | etot = 12506.9994391367
521  ekin = 12502.5058395293 | epot = 4.49359960786579 | etot = 12506.9994391371
522  ekin = 12502.5118224824 | epot = 4.48761665515022 | etot = 12506.9994391376
523  ekin = 12502.5178052824 | epot = 4.48163385559611 | etot = 12506.999439138
524  ekin = 12502.5237879278 | epot = 4.47565121062844 | etot = 12506.9994391384
525  ekin = 12502.5297704171 | epot = 4.46966872167071 | etot = 12506.9994391388
526  ekin = 12502.5357527491 | epot = 4.46368639014521 | etot = 12506.9994391392
527  ekin = 12502.5417349222 | epot = 4.45770421747326 | etot = 12506.9994391396
528  ekin = 12502.547716935 | epot = 4.45172220507559 | etot = 12506.9994391401
529  ekin = 12502.5536987861 | epot = 4.44574035437247 | etot = 12506.9994391405
530  ekin = 12502.5596804741 | epot = 4.43975866678407 | etot = 12506.9994391409
531  ekin = 12502.5656619976 | epot = 4.43377714373071 | etot = 12506.9994391413
532  ekin = 12502.5716433551 | epot = 4.42779578663311 | etot = 12506.9994391417
533  ekin = 12502.5776245452 | epot = 4.42181459691268 | etot = 12506.9994391421
534  ekin = 12502.5836055665 | epot = 4.41583357599172 | etot = 12506.9994391425
535  ekin = 12502.5895864176 | epot = 4.40985272529378 | etot = 12506.9994391429
536  ekin = 12502.5955670971 | epot = 4.40387204624386 | etot = 12506.9994391433
537  ekin = 12502.6015476035 | epot = 4.39789154026869 | etot = 12506.9994391437
538  ekin = 12502.6075279353 | epot = 4.39191120879695 | etot = 12506.9994391441
539  ekin = 12502.6135080913 | epot = 4.38593105325964 | etot = 12506.9994391445
540  ekin = 12502.6194880698 | epot = 4.37995107509024 | etot = 12506.9994391449
541  ekin = 12502.6254678696 | epot = 4.37397127572498 | etot = 12506.9994391453
542  ekin = 12502.6314474891 | epot = 4.36799165660318 | etot = 12506.9994391457
543  ekin = 12502.637426927 | epot = 4.36201221916743 | etot = 12506.9994391461
544  ekin = 12502.6434061817 | epot = 4.35603296486392 | etot = 12506.9994391465
545  ekin = 12502.6493852518 | epot = 4.35005389514262 | etot = 12506.9994391469
546  ekin = 12502.6553641359 | epot = 4.34407501145767 | etot = 12506.9994391473
547  ekin = 12502.6613428324 | epot = 4.33809631526754 | etot = 12506.9994391477
548  ekin = 12502.6673213401 | epot = 4.33211780803533 | etot = 12506.9994391481
549  ekin = 12502.6732996572 | epot = 4.32613949122906 | etot = 12506.9994391485
550  ekin = 12502.6792777825 | epot = 4.32016136632192 | etot = 12506.9994391489
551  ekin = 12502.6852557145 | epot = 4.31418343479255 | etot = 12506.9994391492
552  ekin = 12502.6912334515 | epot = 4.30820569812534 | etot = 12506.9994391496
553  ekin = 12502.6972109922 | epot = 4.30222815781062 | etot = 12506.99943915
554  ekin = 12502.7031883351 | epot = 4.29625081534504 | etot = 12506.9994391504
555  ekin = 12502.7091654785 | epot = 4.2902736722318 | etot = 12506.9994391508
556  ekin = 12502.7151424212 | epot = 4.28429672998092 | etot = 12506.9994391512
557  ekin = 12502.7211191614 | epot = 4.27831999010959 | etot = 12506.9994391515
558  ekin = 12502.7270956978 | epot = 4.27234345414231 | etot = 12506.9994391519
559  ekin = 12502.7330720287 | epot = 4.26636712361134 | etot = 12506.9994391523
560  ekin = 12502.7390481526 | epot = 4.26039100005691 | etot = 12506.9994391527
561  ekin = 12502.745024068 | epot = 4.25441508502752 | etot = 12506.999439153
562  ekin = 12502.7509997733 | epot = 4.24843938008024 | etot = 12506.9994391534
563  ekin = 12502.756975267 | epot = 4.24246388678098 | etot = 12506.9994391538
564  ekin = 12502.7629505474 | epot = 4.23648860670485 | etot = 12506.9994391541
565  ekin = 12502.7689256131 | epot = 4.23051354143639 | etot = 12506.9994391545
566  ekin = 12502.7749004623 | epot = 4.22453869256991 | etot = 12506.9994391549
567  ekin = 12502.7808750935 | epot = 4.21856406170981 | etot = 12506.9994391552
568  ekin = 12502.7868495051 | epot = 4.21258965047086 | etot = 12506.9994391556
569  ekin = 12502.7928236955 | epot = 4.20661546047852 | etot = 12506.9994391559
570  ekin = 12502.7987976629 | epot = 4.20064149336928 | etot = 12506.9994391563
571  ekin = 12502.8047714059 | epot = 4.19466775079092 | etot = 12506.9994391566
572  ekin = 12502.8107449226 | epot = 4.1886942344029 | etot = 12506.999439157
573  ekin = 12502.8167182115 | epot = 4.18272094587663 | etot = 12506.9994391574
574  ekin = 12502.8226912708 | epot = 4.17674788689582 | etot = 12506.9994391577
575  ekin = 12502.8286640989 | epot = 4.17077505915679 | etot = 12506.999439158
576  ekin = 12502.834636694 | epot = 4.16480246436883 | etot = 12506.9994391584
577  ekin = 12502.8406090545 | epot = 4.15883010425451 | etot = 12506.9994391587
578  ekin = 12502.8465811785 | epot = 4.15285798055004 | etot = 12506.9994391591
579  ekin = 12502.8525530644 | epot = 4.14688609500557 | etot = 12506.9994391594
580  ekin = 12502.8585247104 | epot = 4.14091444938557 | etot = 12506.9994391598
581  ekin = 12502.8644961146 | epot = 4.13494304546917 | etot = 12506.9994391601
582  ekin = 12502.8704672754 | epot = 4.1289718850505 | etot = 12506.9994391604
583  ekin = 12502.8764381908 | epot = 4.12300096993904 | etot = 12506.9994391608
584  ekin = 12502.8824088591 | epot = 4.11703030195998 | etot = 12506.9994391611
585  ekin = 12502.8883792785 | epot = 4.11105988295458 | etot = 12506.9994391614
586  ekin = 12502.894349447 | epot = 4.10508971478055 | etot = 12506.9994391618
587  ekin = 12502.9003193628 | epot = 4.09911979931235 | etot = 12506.9994391621
588  ekin = 12502.906289024 | epot = 4.09315013844165 | etot = 12506.9994391624
589  ekin = 12502.9122584287 | epot = 4.08718073407759 | etot = 12506.9994391627
590  ekin = 12502.9182275749 | epot = 4.08121158814726 | etot = 12506.9994391631
591  ekin = 12502.9241964608 | epot = 4.07524270259599 | etot = 12506.9994391634
592  ekin = 12502.9301650843 | epot = 4.06927407938782 | etot = 12506.9994391637
593  ekin = 12502.9361334435 | epot = 4.06330572050577 | etot = 12506.999439164
594  ekin = 12502.9421015364 | epot = 4.0573376279523 | etot = 12506.9994391643
595  ekin = 12502.9480693609 | epot = 4.05136980374969 | etot = 12506.9994391646
596  ekin = 12502.954036915 | epot = 4.04540224994039 | etot = 12506.9994391649
597  ekin = 12502.9600041966 | epot = 4.03943496858748 | etot = 12506.9994391652
598  ekin = 12502.9659712038 | epot = 4.03346796177497 | etot = 12506.9994391655
599  ekin = 12502.9719379342 | epot = 4.02750123160831 | etot = 12506.9994391658
600  ekin = 12502.9779043859 | epot = 4.0215347802147 | etot = 12506.9994391661
601  ekin = 12502.9838705567 | epot = 4.01556860974352 | etot = 12506.9994391664
602  ekin = 12502.9898364444 | epot = 4.00960272236677 | etot = 12506.9994391667
603  ekin = 12502.9958020467 | epot = 4.00363712027945 | etot = 12506.999439167
604  ekin = 12503.0017673616 | epot = 3.99767180569995 | etot = 12506.9994391673
605  ekin = 12503.0077323867 | epot = 3.99170678087049 | etot = 12506.9994391676
606  ekin = 12503.0136971198 | epot = 3.98574204805756 | etot = 12506.9994391679
607  ekin = 12503.0196615586 | epot = 3.97977760955228 | etot = 12506.9994391682
608  ekin = 12503.0256257008 | epot = 3.97381346767087 | etot = 12506.9994391684
609  ekin = 12503.031589544 | epot = 3.96784962475506 | etot = 12506.9994391687
610  ekin = 12503.0375530858 | epot = 3.96188608317248 | etot = 12506.999439169
611  ekin = 12503.043516324 | epot = 3.95592284531717 | etot = 12506.9994391693
612  ekin = 12503.0494792559 | epot = 3.94995991360992 | etot = 12506.9994391695
613  ekin = 12503.0554418793 | epot = 3.94399729049876 | etot = 12506.9994391698
614  ekin = 12503.0614041916 | epot = 3.93803497845937 | etot = 12506.9994391701
615  ekin = 12503.0673661903 | epot = 3.93207297999553 | etot = 12506.9994391703
616  ekin = 12503.073327873 | epot = 3.92611129763957 | etot = 12506.9994391706
617  ekin = 12503.0792892369 | epot = 3.92014993395275 | etot = 12506.9994391709
618  ekin = 12503.0852502796 | epot = 3.91418889152579 | etot = 12506.9994391711
619  ekin = 12503.0912109984 | epot = 3.90822817297925 | etot = 12506.9994391714
620  ekin = 12503.0971713907 | epot = 3.90226778096399 | etot = 12506.9994391716
621  ekin = 12503.1031314537 | epot = 3.89630771816165 | etot = 12506.9994391719
622  ekin = 12503.1090911848 | epot = 3.89034798728505 | etot = 12506.9994391721
623  ekin = 12503.1150505813 | epot = 3.8843885910787 | etot = 12506.9994391723
624  ekin = 12503.1210096403 | epot = 3.87842953231918 | etot = 12506.9994391726
625  ekin = 12503.126968359 | epot = 3.87247081381567 | etot = 12506.9994391728
626  ekin = 12503.1329267346 | epot = 3.86651243841036 | etot = 12506.9994391731
627  ekin = 12503.1388847643 | epot = 3.86055440897891 | etot = 12506.9994391733
628  ekin = 12503.1448424451 | epot = 3.85459672843093 | etot = 12506.9994391735
629  ekin = 12503.150799774 | epot = 3.84863939971043 | etot = 12506.9994391737
630  ekin = 12503.1567567482 | epot = 3.84268242579626 | etot = 12506.999439174
631  ekin = 12503.1627133645 | epot = 3.83672580970262 | etot = 12506.9994391742
632  ekin = 12503.1686696199 | epot = 3.83076955447949 | etot = 12506.9994391744
633  ekin = 12503.1746255114 | epot = 3.8248136632131 | etot = 12506.9994391746
634  ekin = 12503.1805810358 | epot = 3.81885813902639 | etot = 12506.9994391748
635  ekin = 12503.1865361899 | epot = 3.81290298507949 | etot = 12506.999439175
636  ekin = 12503.1924909707 | epot = 3.80694820457021 | etot = 12506.9994391752
637  ekin = 12503.1984453747 | epot = 3.80099380073444 | etot = 12506.9994391754
638  ekin = 12503.2043993988 | epot = 3.79503977684669 | etot = 12506.9994391756
639  ekin = 12503.2103530396 | epot = 3.78908613622052 | etot = 12506.9994391758
640  ekin = 12503.2163062938 | epot = 3.78313288220903 | etot = 12506.999439176
641  ekin = 12503.222259158 | epot = 3.77718001820531 | etot = 12506.9994391762
642  ekin = 12503.2282116287 | epot = 3.77122754764294 | etot = 12506.9994391764
643  ekin = 12503.2341637026 | epot = 3.76527547399645 | etot = 12506.9994391766
644  ekin = 12503.2401153759 | epot = 3.75932380078177 | etot = 12506.9994391767
645  ekin = 12503.2460666453 | epot = 3.75337253155675 | etot = 12506.9994391769
646  ekin = 12503.2520175072 | epot = 3.74742166992159 | etot = 12506.9994391771
647  ekin = 12503.2579679577 | epot = 3.74147121951933 | etot = 12506.9994391772
648  ekin = 12503.2639179934 | epot = 3.73552118403634 | etot = 12506.9994391774
649  ekin = 12503.2698676104 | epot = 3.72957156720275 | etot = 12506.9994391776
650  ekin = 12503.2758168049 | epot = 3.72362237279296 | etot = 12506.9994391777
651  ekin = 12503.2817655732 | epot = 3.71767360462612 | etot = 12506.9994391779
652  ekin = 12503.2877139115 | epot = 3.71172526656657 | etot = 12506.999439178
653  ekin = 12503.2936618156 | epot = 3.70577736252432 | etot = 12506.9994391782
654  ekin = 12503.2996092819 | epot = 3.69982989645557 | etot = 12506.9994391783
655  ekin = 12503.3055563061 | epot = 3.6938828723631 | etot = 12506.9994391785
656  ekin = 12503.3115028843 | epot = 3.68793629429679 | etot = 12506.9994391786
657  ekin = 12503.3174490124 | epot = 3.68199016635412 | etot = 12506.9994391787
658  ekin = 12503.3233946862 | epot = 3.67604449268059 | etot = 12506.9994391788
659  ekin = 12503.3293399015 | epot = 3.67009927747018 | etot = 12506.999439179
660  ekin = 12503.3352846541 | epot = 3.66415452496588 | etot = 12506.9994391791
661  ekin = 12503.3412289397 | epot = 3.65821023946014 | etot = 12506.9994391792
662  ekin = 12503.347172754 | epot = 3.65226642529526 | etot = 12506.9994391793
663  ekin = 12503.3531160926 | epot = 3.64632308686399 | etot = 12506.9994391794
664  ekin = 12503.3590589509 | epot = 3.64038022860986 | etot = 12506.9994391795
665  ekin = 12503.3650013246 | epot = 3.63443785502777 | etot = 12506.9994391796
666  ekin = 12503.3709432091 | epot = 3.62849597066435 | etot = 12506.9994391797
667  ekin = 12503.3768845997 | epot = 3.62255458011849 | etot = 12506.9994391798
668  ekin = 12503.3828254919 | epot = 3.61661368804175 | etot = 12506.9994391799
669  ekin = 12503.3887658809 | epot = 3.61067329913889 | etot = 12506.99943918
670  ekin = 12503.3947057619 | epot = 3.60473341816823 | etot = 12506.9994391801
671  ekin = 12503.4006451302 | epot = 3.59879404994221 | etot = 12506.9994391802
672  ekin = 12503.4065839809 | epot = 3.59285519932777 | etot = 12506.9994391802
673  ekin = 12503.4125223091 | epot = 3.58691687124684 | etot = 12506.9994391803
674  ekin = 12503.4184601097 | epot = 3.58097907067678 | etot = 12506.9994391804
675  ekin = 12503.4243973778 | epot = 3.57504180265085 | etot = 12506.9994391804
676  ekin = 12503.4303341082 | epot = 3.56910507225862 | etot = 12506.9994391805
677  ekin = 12503.4362702959 | epot = 3.56316888464645 | etot = 12506.9994391805
678  ekin = 12503.4422059356 | epot = 3.55723324501794 | etot = 12506.9994391806
679  ekin = 12503.448141022 | epot = 3.55129815863433 | etot = 12506.9994391806
680  ekin = 12503.4540755499 | epot = 3.54536363081498 | etot = 12506.9994391807
681  ekin = 12503.4600095138 | epot = 3.53942966693783 | etot = 12506.9994391807
682  ekin = 12503.4659429083 | epot = 3.53349627243975 | etot = 12506.9994391807
683  ekin = 12503.4718757279 | epot = 3.52756345281708 | etot = 12506.9994391808
684  ekin = 12503.4778079672 | epot = 3.52163121362597 | etot = 12506.9994391808
685  ekin = 12503.4837396203 | epot = 3.51569956048288 | etot = 12506.9994391808
686  ekin = 12503.4896706818 | epot = 3.50976849906499 | etot = 12506.9994391808
687  ekin = 12503.4956011457 | epot = 3.50383803511058 | etot = 12506.9994391808
688  ekin = 12503.5015310064 | epot = 3.49790817441952 | etot = 12506.9994391808
689  ekin = 12503.507460258 | epot = 3.49197892285364 | etot = 12506.9994391808
690  ekin = 12503.5133888945 | epot = 3.48605028633718 | etot = 12506.9994391808
691  ekin = 12503.51931691 | epot = 3.48012227085718 | etot = 12506.9994391808
692  ekin = 12503.5252442983 | epot = 3.4741948824639 | etot = 12506.9994391808
693  ekin = 12503.5311710535 | epot = 3.46826812727125 | etot = 12506.9994391808
694  ekin = 12503.5370971693 | epot = 3.46234201145715 | etot = 12506.9994391808
695  ekin = 12503.5430226395 | epot = 3.456416541264 | etot = 12506.9994391807
696  ekin = 12503.5489474577 | epot = 3.45049172299901 | etot = 12506.9994391807
697  ekin = 12503.5548716176 | epot = 3.44456756303464 | etot = 12506.9994391807
698  ekin = 12503.5607951128 | epot = 3.438644067809 | etot = 12506.9994391806
699  ekin = 12503.5667179368 | epot = 3.43272124382618 | etot = 12506.9994391806
700  ekin = 12503.5726400829 | epot = 3.42679909765675 | etot = 12506.9994391805
701  ekin = 12503.5785615445 | epot = 3.42087763593802 | etot = 12506.9994391805
702  ekin = 12503.5844823151 | epot = 3.41495686537451 | etot = 12506.9994391804
703  ekin = 12503.5904023876 | epot = 3.4090367927383 | etot = 12506.9994391804
704  ekin = 12503.5963217554 | epot = 3.40311742486938 | etot = 12506.9994391803
705  ekin = 12503.6022404115 | epot = 3.39719876867604 | etot = 12506.9994391802
706  ekin = 12503.608158349 | epot = 3.39128083113527 | etot = 12506.9994391801
707  ekin = 12503.6140755608 | epot = 3.38536361929307 | etot = 12506.9994391801
708  ekin = 12503.6199920397 | epot = 3.37944714026486 | etot = 12506.99943918
709  ekin = 12503.6259077786 | epot = 3.37353140123577 | etot = 12506.9994391799
710  ekin = 12503.6318227703 | epot = 3.36761640946108 | etot = 12506.9994391798
711  ekin = 12503.6377370074 | epot = 3.3617021722665 | etot = 12506.9994391797
712  ekin = 12503.6436504825 | epot = 3.35578869704854 | etot = 12506.9994391796
713  ekin = 12503.6495631882 | epot = 3.34987599127484 | etot = 12506.9994391795
714  ekin = 12503.6554751169 | epot = 3.34396406248453 | etot = 12506.9994391793
715  ekin = 12503.6613862609 | epot = 3.33805291828856 | etot = 12506.9994391792
716  ekin = 12503.6672966127 | epot = 3.33214256636998 | etot = 12506.9994391791
717  ekin = 12503.6732061645 | epot = 3.32623301448436 | etot = 12506.999439179
718  ekin = 12503.6791149084 | epot = 3.32032427046002 | etot = 12506.9994391788
719  ekin = 12503.6850228365 | epot = 3.31441634219837 | etot = 12506.9994391787
720  ekin = 12503.6909299409 | epot = 3.30850923767428 | etot = 12506.9994391785
721  ekin = 12503.6968362134 | epot = 3.30260296493631 | etot = 12506.9994391784
722  ekin = 12503.7027416461 | epot = 3.29669753210705 | etot = 12506.9994391782
723  ekin = 12503.7086462307 | epot = 3.29079294738342 | etot = 12506.9994391781
724  ekin = 12503.7145499588 | epot = 3.28488921903698 | etot = 12506.9994391779
725  ekin = 12503.7204528223 | epot = 3.27898635541416 | etot = 12506.9994391777
726  ekin = 12503.7263548126 | epot = 3.27308436493664 | etot = 12506.9994391775
727  ekin = 12503.7322559212 | epot = 3.26718325610155 | etot = 12506.9994391773
728  ekin = 12503.7381561397 | epot = 3.26128303748177 | etot = 12506.9994391772
729  ekin = 12503.7440554592 | epot = 3.25538371772624 | etot = 12506.999439177
730  ekin = 12503.7499538712 | epot = 3.24948530556017 | etot = 12506.9994391768
731  ekin = 12503.7558513668 | epot = 3.24358780978534 | etot = 12506.9994391766
732  ekin = 12503.7617479371 | epot = 3.23769123928036 | etot = 12506.9994391763
733  ekin = 12503.7676435731 | epot = 3.23179560300089 | etot = 12506.9994391761
734  ekin = 12503.7735382659 | epot = 3.22590090997992 | etot = 12506.9994391759
735  ekin = 12503.7794320064 | epot = 3.220007169328 | etot = 12506.9994391757
736  ekin = 12503.7853247852 | epot = 3.21411439023349 | etot = 12506.9994391755
737  ekin = 12503.7912165933 | epot = 3.20822258196279 | etot = 12506.9994391752
738  ekin = 12503.7971074211 | epot = 3.20233175386055 | etot = 12506.999439175
739  ekin = 12503.8029972594 | epot = 3.1964419153499 | etot = 12506.9994391747
740  ekin = 12503.8088860985 | epot = 3.19055307593271 | etot = 12506.9994391745
741  ekin = 12503.814773929 | epot = 3.18466524518975 | etot = 12506.9994391742
742  ekin = 12503.8206607412 | epot = 3.17877843278091 | etot = 12506.999439174
743  ekin = 12503.8265465252 | epot = 3.17289264844541 | etot = 12506.9994391737
744  ekin = 12503.8324312714 | epot = 3.16700790200204 | etot = 12506.9994391734
745  ekin = 12503.8383149698 | epot = 3.16112420334924 | etot = 12506.9994391731
746  ekin = 12503.8441976104 | epot = 3.15524156246543 | etot = 12506.9994391728
747  ekin = 12503.8500791831 | epot = 3.14935998940908 | etot = 12506.9994391726
748  ekin = 12503.8559596779 | epot = 3.14347949431893 | etot = 12506.9994391723
749  ekin = 12503.8618390845 | epot = 3.13760008741416 | etot = 12506.999439172
750  ekin = 12503.8677173927 | epot = 3.13172177899457 | etot = 12506.9994391716
751  ekin = 12503.8735945919 | epot = 3.12584457944069 | etot = 12506.9994391713
752  ekin = 12503.8794706718 | epot = 3.11996849921401 | etot = 12506.999439171
753  ekin = 12503.8853456218 | epot = 3.11409354885706 | etot = 12506.9994391707
754  ekin = 12503.8912194314 | epot = 3.10821973899357 | etot = 12506.9994391704
755  ekin = 12503.8970920897 | epot = 3.10234708032865 | etot = 12506.99943917
756  ekin = 12503.902963586 | epot = 3.09647558364887 | etot = 12506.9994391697
757  ekin = 12503.9088339095 | epot = 3.09060525982241 | etot = 12506.9994391694
758  ekin = 12503.9147030492 | epot = 3.08473611979919 | etot = 12506.999439169
759  ekin = 12503.920570994 | epot = 3.07886817461097 | etot = 12506.9994391686
760  ekin = 12503.9264377329 | epot = 3.07300143537145 | etot = 12506.9994391683
761  ekin = 12503.9323032546 | epot = 3.06713591327639 | etot = 12506.9994391679
762  ekin = 12503.9381675479 | epot = 3.06127161960373 | etot = 12506.9994391675
763  ekin = 12503.9440306015 | epot = 3.05540856571363 | etot = 12506.9994391672
764  ekin = 12503.9498924037 | epot = 3.04954676304859 | etot = 12506.9994391668
765  ekin = 12503.9557529433 | epot = 3.04368622313354 | etot = 12506.9994391664
766  ekin = 12503.9616122084 | epot = 3.03782695757586 | etot = 12506.999439166
767  ekin = 12503.9674701875 | epot = 3.03196897806553 | etot = 12506.9994391656
768  ekin = 12503.9733268688 | epot = 3.02611229637514 | etot = 12506.9994391652
769  ekin = 12503.9791822404 | epot = 3.02025692435994 | etot = 12506.9994391648
770  ekin = 12503.9850362904 | epot = 3.01440287395791 | etot = 12506.9994391644
771  ekin = 12503.9908890068 | epot = 3.00855015718982 | etot = 12506.999439164
772  ekin = 12503.9967403774 | epot = 3.00269878615924 | etot = 12506.9994391635
773  ekin = 12504.00259039 | epot = 2.99684877305257 | etot = 12506.9994391631
774  ekin = 12504.0084390325 | epot = 2.99100013013912 | etot = 12506.9994391627
775  ekin = 12504.0142862924 | epot = 2.98515286977105 | etot = 12506.9994391622
776  ekin = 12504.0201321574 | epot = 2.97930700438343 | etot = 12506.9994391618
777  ekin = 12504.0259766148 | epot = 2.97346254649426 | etot = 12506.9994391613
778  ekin = 12504.0318196521 | epot = 2.96761950870446 | etot = 12506.9994391608
779  ekin = 12504.0376612567 | epot = 2.96177790369784 | etot = 12506.9994391604
780  ekin = 12504.0435014157 | epot = 2.95593774424113 | etot = 12506.9994391599
781  ekin = 12504.0493401162 | epot = 2.95009904318393 | etot = 12506.9994391594
782  ekin = 12504.0551773455 | epot = 2.94426181345872 | etot = 12506.999439159
783  ekin = 12504.0610130904 | epot = 2.93842606808079 | etot = 12506.9994391585
784  ekin = 12504.0668473378 | epot = 2.93259182014827 | etot = 12506.999439158
785  ekin = 12504.0726800746 | epot = 2.926759082842 | etot = 12506.9994391575
786  ekin = 12504.0785112875 | epot = 2.92092786942555 | etot = 12506.999439157
787  ekin = 12504.0843409632 | epot = 2.91509819324514 | etot = 12506.9994391565
788  ekin = 12504.0901690882 | epot = 2.90927006772962 | etot = 12506.999439156
789  ekin = 12504.095995649 | epot = 2.90344350639033 | etot = 12506.9994391554
790  ekin = 12504.1018206321 | epot = 2.89761852282108 | etot = 12506.9994391549
791  ekin = 12504.1076440237 | epot = 2.89179513069807 | etot = 12506.9994391544
792  ekin = 12504.1134658101 | epot = 2.88597334377976 | etot = 12506.9994391538
793  ekin = 12504.1192859774 | epot = 2.88015317590688 | etot = 12506.9994391533
794  ekin = 12504.1251045117 | epot = 2.87433464100217 | etot = 12506.9994391528
795  ekin = 12504.1309213991 | epot = 2.86851775307045 | etot = 12506.9994391522
796  ekin = 12504.1367366254 | epot = 2.86270252619839 | etot = 12506.9994391516
797  ekin = 12504.1425501765 | epot = 2.85688897455443 | etot = 12506.9994391511
798  ekin = 12504.1483620381 | epot = 2.85107711238867 | etot = 12506.9994391505
799  ekin = 12504.1541721959 | epot = 2.84526695403274 | etot = 12506.9994391499
800  ekin = 12504.1599806355 | epot = 2.83945851389962 | etot = 12506.9994391494
801  ekin = 12504.1657873423 | epot = 2.83365180648356 | etot = 12506.9994391488
802  ekin = 12504.1715923018 | epot = 2.82784684635989 | etot = 12506.9994391482
803  ekin = 12504.1773954994 | epot = 2.82204364818488 | etot = 12506.9994391476
804  ekin = 12504.1831969203 | epot = 2.81624222669555 | etot = 12506.999439147
805  ekin = 12504.1889965497 | epot = 2.81044259670958 | etot = 12506.9994391464
806  ekin = 12504.1947943727 | epot = 2.80464477312503 | etot = 12506.9994391458
807  ekin = 12504.2005903743 | epot = 2.79884877092023 | etot = 12506.9994391452
808  ekin = 12504.2063845394 | epot = 2.7930546051536 | etot = 12506.9994391446
809  ekin = 12504.212176853 | epot = 2.78726229096337 | etot = 12506.9994391439
810  ekin = 12504.2179672997 | epot = 2.78147184356749 | etot = 12506.9994391433
811  ekin = 12504.2237558644 | epot = 2.77568327826337 | etot = 12506.9994391427
812  ekin = 12504.2295425316 | epot = 2.76989661042766 | etot = 12506.999439142
813  ekin = 12504.2353272859 | epot = 2.76411185551603 | etot = 12506.9994391414
814  ekin = 12504.2411101117 | epot = 2.758329029063 | etot = 12506.9994391407
815  ekin = 12504.2468909934 | epot = 2.75254814668163 | etot = 12506.9994391401
816  ekin = 12504.2526699153 | epot = 2.74676922406331 | etot = 12506.9994391394
817  ekin = 12504.2584468618 | epot = 2.74099227697755 | etot = 12506.9994391387
818  ekin = 12504.2642218168 | epot = 2.73521732127171 | etot = 12506.9994391381
819  ekin = 12504.2699947645 | epot = 2.72944437287069 | etot = 12506.9994391374
820  ekin = 12504.2757656889 | epot = 2.72367344777674 | etot = 12506.9994391367
821  ekin = 12504.281534574 | epot = 2.71790456206918 | etot = 12506.999439136
822  ekin = 12504.2873014034 | epot = 2.71213773190407 | etot = 12506.9994391353
823  ekin = 12504.2930661611 | epot = 2.70637297351399 | etot = 12506.9994391347
824  ekin = 12504.2988288307 | epot = 2.70061030320771 | etot = 12506.999439134
825  ekin = 12504.3045893959 | epot = 2.6948497373699 | etot = 12506.9994391332
826  ekin = 12504.3103478401 | epot = 2.68909129246088 | etot = 12506.9994391325
827  ekin = 12504.3161041468 | epot = 2.68333498501621 | etot = 12506.9994391318
828  ekin = 12504.3218582995 | epot = 2.67758083164651 | etot = 12506.9994391311
829  ekin = 12504.3276102813 | epot = 2.671828849037 | etot = 12506.9994391304
830  ekin = 12504.3333600757 | epot = 2.66607905394729 | etot = 12506.9994391297
831  ekin = 12504.3391076657 | epot = 2.66033146321096 | etot = 12506.9994391289
832  ekin = 12504.3448530345 | epot = 2.65458609373531 | etot = 12506.9994391282
833  ekin = 12504.3505961649 | epot = 2.64884296250091 | etot = 12506.9994391274
834  ekin = 12504.3563370401 | epot = 2.64310208656134 | etot = 12506.9994391267
835  ekin = 12504.3620756429 | epot = 2.6373634830428 | etot = 12506.9994391259
836  ekin = 12504.367811956 | epot = 2.63162716914374 | etot = 12506.9994391252
837  ekin = 12504.3735459623 | epot = 2.62589316213448 | etot = 12506.9994391244
838  ekin = 12504.3792776443 | epot = 2.62016147935687 | etot = 12506.9994391237
839  ekin = 12504.3850069847 | epot = 2.6144321382239 | etot = 12506.9994391229
840  ekin = 12504.3907339659 | epot = 2.60870515621928 | etot = 12506.9994391221
841  ekin = 12504.3964585704 | epot = 2.60298055089707 | etot = 12506.9994391213
842  ekin = 12504.4021807807 | epot = 2.59725833988132 | etot = 12506.9994391206
843  ekin = 12504.4079005789 | epot = 2.59153854086558 | etot = 12506.9994391198
844  ekin = 12504.4136179474 | epot = 2.58582117161256 | etot = 12506.999439119
845  ekin = 12504.4193328682 | epot = 2.58010624995369 | etot = 12506.9994391182
846  ekin = 12504.4250453236 | epot = 2.57439379378868 | etot = 12506.9994391174
847  ekin = 12504.4307552955 | epot = 2.56868382108512 | etot = 12506.9994391166
848  ekin = 12504.4364627659 | epot = 2.56297634987803 | etot = 12506.9994391158
849  ekin = 12504.4421677167 | epot = 2.55727139826943 | etot = 12506.999439115
850  ekin = 12504.4478701297 | epot = 2.55156898442788 | etot = 12506.9994391141
851  ekin = 12504.4535699867 | epot = 2.54586912658803 | etot = 12506.9994391133
852  ekin = 12504.4592672695 | epot = 2.54017184305017 | etot = 12506.9994391125
853  ekin = 12504.4649619595 | epot = 2.53447715217979 | etot = 12506.9994391117
854  ekin = 12504.4706540384 | epot = 2.52878507240706 | etot = 12506.9994391108
855  ekin = 12504.4763434878 | epot = 2.52309562222638 | etot = 12506.99943911
856  ekin = 12504.482030289 | epot = 2.51740882019592 | etot = 12506.9994391092
857  ekin = 12504.4877144234 | epot = 2.51172468493712 | etot = 12506.9994391083
858  ekin = 12504.4933958723 | epot = 2.50604323513418 | etot = 12506.9994391075
859  ekin = 12504.4990746171 | epot = 2.50036448953358 | etot = 12506.9994391066
860  ekin = 12504.5047506388 | epot = 2.4946884669436 | etot = 12506.9994391058
861  ekin = 12504.5104239187 | epot = 2.48901518623378 | etot = 12506.9994391049
862  ekin = 12504.5160944377 | epot = 2.4833446663344 | etot = 12506.999439104
863  ekin = 12504.5217621769 | epot = 2.47767692623602 | etot = 12506.9994391032
864  ekin = 12504.5274271173 | epot = 2.47201198498889 | etot = 12506.9994391023
865  ekin = 12504.5330892397 | epot = 2.46634986170246 | etot = 12506.9994391014
866  ekin = 12504.538748525 | epot = 2.46069057554483 | etot = 12506.9994391005
867  ekin = 12504.5444049539 | epot = 2.45503414574223 | etot = 12506.9994390997
868  ekin = 12504.5500585072 | epot = 2.44938059157845 | etot = 12506.9994390988
869  ekin = 12504.5557091655 | epot = 2.44372993239432 | etot = 12506.9994390979
870  ekin = 12504.5613569094 | epot = 2.43808218758712 | etot = 12506.999439097
871  ekin = 12504.5670017195 | epot = 2.43243737661007 | etot = 12506.9994390961
872  ekin = 12504.5726435762 | epot = 2.42679551897171 | etot = 12506.9994390952
873  ekin = 12504.5782824601 | epot = 2.42115663423538 | etot = 12506.9994390943
874  ekin = 12504.5839183514 | epot = 2.41552074201862 | etot = 12506.9994390934
875  ekin = 12504.5895512305 | epot = 2.40988786199258 | etot = 12506.9994390925
876  ekin = 12504.5951810777 | epot = 2.40425801388148 | etot = 12506.9994390916
877  ekin = 12504.6008078732 | epot = 2.39863121746199 | etot = 12506.9994390907
878  ekin = 12504.6064315972 | epot = 2.39300749256262 | etot = 12506.9994390898
879  ekin = 12504.6120522298 | epot = 2.38738685906317 | etot = 12506.9994390888
880  ekin = 12504.617669751 | epot = 2.38176933689409 | etot = 12506.9994390879
881  ekin = 12504.6232841409 | epot = 2.3761549460359 | etot = 12506.999439087
882  ekin = 12504.6288953795 | epot = 2.37054370651853 | etot = 12506.9994390861
883  ekin = 12504.6345034467 | epot = 2.36493563842079 | etot = 12506.9994390851
884  ekin = 12504.6401083223 | epot = 2.35933076186965 | etot = 12506.9994390842
885  ekin = 12504.6457099862 | epot = 2.35372909703971 | etot = 12506.9994390832
886  ekin = 12504.6513084182 | epot = 2.34813066415249 | etot = 12506.9994390823
887  ekin = 12504.6569035979 | epot = 2.34253548347586 | etot = 12506.9994390814
888  ekin = 12504.6624955051 | epot = 2.33694357532335 | etot = 12506.9994390804
889  ekin = 12504.6680841194 | epot = 2.33135496005356 | etot = 12506.9994390795
890  ekin = 12504.6736694204 | epot = 2.32576965806947 | etot = 12506.9994390785
891  ekin = 12504.6792513877 | epot = 2.32018768981781 | etot = 12506.9994390776
892  ekin = 12504.6848300008 | epot = 2.31460907578843 | etot = 12506.9994390766
893  ekin = 12504.6904052391 | epot = 2.30903383651358 | etot = 12506.9994390756
894  ekin = 12504.6959770821 | epot = 2.30346199256732 | etot = 12506.9994390747
895  ekin = 12504.7015455092 | epot = 2.29789356456481 | etot = 12506.9994390737
896  ekin = 12504.7071104996 | epot = 2.29232857316165 | etot = 12506.9994390728
897  ekin = 12504.7126720327 | epot = 2.28676703905321 | etot = 12506.9994390718
898  ekin = 12504.7182300878 | epot = 2.28120898297397 | etot = 12506.9994390708
899  ekin = 12504.7237846441 | epot = 2.27565442569679 | etot = 12506.9994390698
900  ekin = 12504.7293356808 | epot = 2.27010338803228 | etot = 12506.9994390689
901  ekin = 12504.7348831771 | epot = 2.26455589082811 | etot = 12506.9994390679
902  ekin = 12504.7404271119 | epot = 2.25901195496827 | etot = 12506.9994390669
903  ekin = 12504.7459674646 | epot = 2.25347160137241 | etot = 12506.9994390659
904  ekin = 12504.7515042139 | epot = 2.24793485099517 | etot = 12506.9994390649
905  ekin = 12504.7570373391 | epot = 2.24240172482544 | etot = 12506.999439064
906  ekin = 12504.7625668191 | epot = 2.23687224388564 | etot = 12506.999439063
907  ekin = 12504.7680926328 | epot = 2.23134642923107 | etot = 12506.999439062
908  ekin = 12504.773614759 | epot = 2.22582430194915 | etot = 12506.999439061
909  ekin = 12504.7791331768 | epot = 2.22030588315873 | etot = 12506.99943906
910  ekin = 12504.784647865 | epot = 2.21479119400938 | etot = 12506.999439059
911  ekin = 12504.7901588023 | epot = 2.20928025568067 | etot = 12506.999439058
912  ekin = 12504.7956659676 | epot = 2.20377308938139 | etot = 12506.999439057
913  ekin = 12504.8011693397 | epot = 2.19826971634894 | etot = 12506.999439056
914  ekin = 12504.8066688972 | epot = 2.19277015784848 | etot = 12506.999439055
915  ekin = 12504.8121646188 | epot = 2.1872744351723 | etot = 12506.999439054
916  ekin = 12504.8176564834 | epot = 2.18178256963901 | etot = 12506.999439053
917  ekin = 12504.8231444694 | epot = 2.17629458259287 | etot = 12506.999439052
918  ekin = 12504.8286285556 | epot = 2.170810495403 | etot = 12506.999439051
919  ekin = 12504.8341087205 | epot = 2.16533032946266 | etot = 12506.99943905
920  ekin = 12504.8395849428 | epot = 2.15985410618853 | etot = 12506.999439049
921  ekin = 12504.845057201 | epot = 2.15438184701992 | etot = 12506.999439048
922  ekin = 12504.8505254736 | epot = 2.14891357341806 | etot = 12506.999439047
923  ekin = 12504.8559897391 | epot = 2.14344930686533 | etot = 12506.999439046
924  ekin = 12504.8614499761 | epot = 2.13798906886451 | etot = 12506.9994390449
925  ekin = 12504.866906163 | epot = 2.13253288093807 | etot = 12506.9994390439
926  ekin = 12504.8723582783 | epot = 2.12708076462733 | etot = 12506.9994390429
927  ekin = 12504.8778063004 | epot = 2.12163274149177 | etot = 12506.9994390419
928  ekin = 12504.8832502078 | epot = 2.11618883310825 | etot = 12506.9994390409
929  ekin = 12504.8886899788 | epot = 2.11074906107026 | etot = 12506.9994390399
930  ekin = 12504.8941255919 | epot = 2.10531344698714 | etot = 12506.9994390389
931  ekin = 12504.8995570254 | epot = 2.09988201248331 | etot = 12506.9994390378
932  ekin = 12504.9049842576 | epot = 2.09445477919754 | etot = 12506.9994390368
933  ekin = 12504.910407267 | epot = 2.08903176878214 | etot = 12506.9994390358
934  ekin = 12504.9158260319 | epot = 2.08361300290223 | etot = 12506.9994390348
935  ekin = 12504.9212405305 | epot = 2.07819850323493 | etot = 12506.9994390338
936  ekin = 12504.9266507413 | epot = 2.07278829146863 | etot = 12506.9994390327
937  ekin = 12504.9320566424 | epot = 2.06738238930218 | etot = 12506.9994390317
938  ekin = 12504.9374582123 | epot = 2.06198081844415 | etot = 12506.9994390307
939  ekin = 12504.9428554291 | epot = 2.05658360061202 | etot = 12506.9994390297
940  ekin = 12504.9482482711 | epot = 2.05119075753142 | etot = 12506.9994390287
941  ekin = 12504.9536367167 | epot = 2.04580231093538 | etot = 12506.9994390276
942  ekin = 12504.9590207441 | epot = 2.0404182825635 | etot = 12506.9994390266
943  ekin = 12504.9644003314 | epot = 2.03503869416121 | etot = 12506.9994390256
[...]
9774  ekin = 12505.0590068254 | epot = 1.9404274190961 | etot = 12506.9994342445
9775  ekin = 12505.0633424309 | epot = 1.93609168349499 | etot = 12506.9994341144
9776  ekin = 12505.0676225238 | epot = 1.93181146133676 | etot = 12506.9994339851
9777  ekin = 12505.0718451832 | epot = 1.92758867331478 | etot = 12506.9994338565
9778  ekin = 12505.0760084998 | epot = 1.92342522883302 | etot = 12506.9994337286
9779  ekin = 12505.0801105759 | epot = 1.91932302561457 | etot = 12506.9994336015
9780  ekin = 12505.0841495259 | epot = 1.91528394931638 | etot = 12506.9994334753
9781  ekin = 12505.0881234766 | epot = 1.91130987315009 | etot = 12506.9994333498
9782  ekin = 12505.0920305676 | epot = 1.907402657509 | etot = 12506.9994332251
9783  ekin = 12505.0958689518 | epot = 1.90356414960116 | etot = 12506.9994331014
9784  ekin = 12505.0996367954 | epot = 1.89979618308856 | etot = 12506.9994329785
9785  ekin = 12505.1033322788 | epot = 1.89610057773239 | etot = 12506.9994328565
9786  ekin = 12505.1069535965 | epot = 1.89247913904449 | etot = 12506.9994327355
9787  ekin = 12505.1104989575 | epot = 1.88893365794463 | etot = 12506.9994326154
9788  ekin = 12505.1139665859 | epot = 1.88546591042405 | etot = 12506.9994324963
9789  ekin = 12505.117354721 | epot = 1.88207765721477 | etot = 12506.9994323782
9790  ekin = 12505.1206616176 | epot = 1.87877064346503 | etot = 12506.9994322611
9791  ekin = 12505.1238855466 | epot = 1.87554659842043 | etot = 12506.999432145
9792  ekin = 12505.1270247949 | epot = 1.87240723511111 | etot = 12506.99943203
9793  ekin = 12505.130077666 | epot = 1.86935425004461 | etot = 12506.999431916
9794  ekin = 12505.1330424802 | epot = 1.8663893229045 | etot = 12506.9994318031
9795  ekin = 12505.1359175751 | epot = 1.86351411625476 | etot = 12506.9994316914
9796  ekin = 12505.1387013055 | epot = 1.86073027524971 | etot = 12506.9994315807
9797  ekin = 12505.1413920439 | epot = 1.85803942734951 | etot = 12506.9994314712
9798  ekin = 12505.1439881808 | epot = 1.85544318204122 | etot = 12506.9994313629
9799  ekin = 12505.1464881251 | epot = 1.85294313056519 | etot = 12506.9994312557
9800  ekin = 12505.148890304 | epot = 1.85054084564692 | etot = 12506.9994311497
9801  ekin = 12505.1511931637 | epot = 1.84823788123401 | etot = 12506.9994310449
9802  ekin = 12505.1533951691 | epot = 1.84603577223858 | etot = 12506.9994309413
9803  ekin = 12505.1554948047 | epot = 1.84393603428447 | etot = 12506.999430839
9804  ekin = 12505.1574905744 | epot = 1.84194016345975 | etot = 12506.9994307379
9805  ekin = 12505.159381002 | epot = 1.84004963607406 | etot = 12506.9994306381
9806  ekin = 12505.1611646311 | epot = 1.83826590842077 | etot = 12506.9994305395
9807  ekin = 12505.1628400257 | epot = 1.83659041654402 | etot = 12506.9994304423
9808  ekin = 12505.1644057703 | epot = 1.83502457601032 | etot = 12506.9994303463
9809  ekin = 12505.16586047 | epot = 1.83356978168483 | etot = 12506.9994302517
9810  ekin = 12505.1672027509 | epot = 1.83222740751211 | etot = 12506.9994301584
9811  ekin = 12505.1684312601 | epot = 1.83099880630127 | etot = 12506.9994300664
9812  ekin = 12505.1695446663 | epot = 1.82988530951532 | etot = 12506.9994299758
9813  ekin = 12505.1705416595 | epot = 1.82888822706502 | etot = 12506.9994298866
9814  ekin = 12505.1714209516 | epot = 1.82800884710647 | etot = 12506.9994297987
9815  ekin = 12505.1721812764 | epot = 1.827248435843 | etot = 12506.9994297123
9816  ekin = 12505.1728213899 | epot = 1.82660823733082 | etot = 12506.9994296272
9817  ekin = 12505.1733400703 | epot = 1.82608947328863 | etot = 12506.9994295436
9818  ekin = 12505.1737361184 | epot = 1.82569334291084 | etot = 12506.9994294614
9819  ekin = 12505.1740083579 | epot = 1.82542102268435 | etot = 12506.9994293806
9820  ekin = 12505.174155635 | epot = 1.82527366620916 | etot = 12506.9994293013
9821  ekin = 12505.1741768194 | epot = 1.82525240402205 | etot = 12506.9994292234
9822  ekin = 12505.1740708036 | epot = 1.82535834342379 | etot = 12506.999429147
9823  ekin = 12505.1738365037 | epot = 1.8255925683096 | etot = 12506.999429072
9824  ekin = 12505.1734728596 | epot = 1.82595613900268 | etot = 12506.9994289986
9825  ekin = 12505.1729788346 | epot = 1.82645009209074 | etot = 12506.9994289267
9826  ekin = 12505.172353416 | epot = 1.82707544026569 | etot = 12506.9994288562
9827  ekin = 12505.1715956152 | epot = 1.82783317216593 | etot = 12506.9994287873
9828  ekin = 12505.1707044677 | epot = 1.82872425222164 | etot = 12506.9994287199
9829  ekin = 12505.1696790336 | epot = 1.82974962050256 | etot = 12506.9994286541
9830  ekin = 12505.1685183972 | epot = 1.83091019256851 | etot = 12506.9994285898
9831  ekin = 12505.1672216677 | epot = 1.83220685932227 | etot = 12506.999428527
9832  ekin = 12505.1657879789 | epot = 1.83364048686504 | etot = 12506.9994284658
9833  ekin = 12505.1642164898 | epot = 1.83521191635409 | etot = 12506.9994284062
9834  ekin = 12505.1625063843 | epot = 1.83692196386272 | etot = 12506.9994283481
9835  ekin = 12505.1606568714 | epot = 1.83877142024242 | etot = 12506.9994282917
9836  ekin = 12505.1586671858 | epot = 1.84076105098702 | etot = 12506.9994282368
9837  ekin = 12505.1565365874 | epot = 1.84289159609903 | etot = 12506.9994281835
9838  ekin = 12505.1542643619 | epot = 1.84516376995773 | etot = 12506.9994281319
9839  ekin = 12505.1518498206 | epot = 1.84757826118926 | etot = 12506.9994280818
9840  ekin = 12505.1492923009 | epot = 1.85013573253844 | etot = 12506.9994280334
9841  ekin = 12505.1465911659 | epot = 1.85283682074239 | etot = 12506.9994279866
9842  ekin = 12505.1437458051 | epot = 1.85568213640578 | etot = 12506.9994279415
9843  ekin = 12505.1407556341 | epot = 1.85867226387768 | etot = 12506.999427898
9844  ekin = 12505.1376200951 | epot = 1.86180776113004 | etot = 12506.9994278562
9845  ekin = 12505.1343386564 | epot = 1.86508915963749 | etot = 12506.999427816
9846  ekin = 12505.1309108133 | epot = 1.8685169642588 | etot = 12506.9994277775
9847  ekin = 12505.1273360876 | epot = 1.87209165311966 | etot = 12506.9994277407
9848  ekin = 12505.1236140281 | epot = 1.87581367749669 | etot = 12506.9994277056
9849  ekin = 12505.1197442105 | epot = 1.87968346170291 | etot = 12506.9994276722
9850  ekin = 12505.1157262375 | epot = 1.88370140297436 | etot = 12506.9994276404
9851  ekin = 12505.1115597391 | epot = 1.88786787135809 | etot = 12506.9994276104
9852  ekin = 12505.1072443725 | epot = 1.89218320960115 | etot = 12506.9994275821
9853  ekin = 12505.1027798225 | epot = 1.89664773304091 | etot = 12506.9994275555
9854  ekin = 12505.0981658012 | epot = 1.90126172949643 | etot = 12506.9994275307
9855  ekin = 12505.0934020484 | epot = 1.90602545916094 | etot = 12506.9994275076
9856  ekin = 12505.0884883317 | epot = 1.91093915449547 | etot = 12506.9994274862
9857  ekin = 12505.0834244464 | epot = 1.91600302012352 | etot = 12506.9994274666
9858  ekin = 12505.078210216 | epot = 1.92121723272675 | etot = 12506.9994274487
9859  ekin = 12505.0728454917 | epot = 1.9265819409418 | etot = 12506.9994274326
9860  ekin = 12505.067330153 | epot = 1.93209726525809 | etot = 12506.9994274183
9861  ekin = 12505.0616641078 | epot = 1.93776329791679 | etot = 12506.9994274057
9862  ekin = 12505.0558472921 | epot = 1.94358010281059 | etot = 12506.9994273949
9863  ekin = 12505.0498796706 | epot = 1.94954771538484 | etot = 12506.999427386
9864  ekin = 12505.0437612363 | epot = 1.9556661425395 | etot = 12506.9994273788
9865  ekin = 12505.0374920109 | epot = 1.96193536253228 | etot = 12506.9994273734
9866  ekin = 12505.031072045 | epot = 1.96835532488283 | etot = 12506.9994273699
9867  ekin = 12505.0245014178 | epot = 1.97492595027814 | etot = 12506.9994273681
9868  ekin = 12505.0177802377 | epot = 1.98164713047891 | etot = 12506.9994273682
9869  ekin = 12505.0109086419 | epot = 1.98851872822723 | etot = 12506.9994273701
9870  ekin = 12505.0038867967 | epot = 1.99554057715543 | etot = 12506.9994273738
9871  ekin = 12504.9967148977 | epot = 2.00271248169609 | etot = 12506.9994273794
9872  ekin = 12504.9893931699 | epot = 2.01003421699344 | etot = 12506.9994273869
9873  ekin = 12504.9819218673 | epot = 2.01750552881598 | etot = 12506.9994273962
9874  ekin = 12504.9743012738 | epot = 2.02512613347051 | etot = 12506.9994274073
9875  ekin = 12504.9665317026 | epot = 2.03289571771763 | etot = 12506.9994274203
9876  ekin = 12504.9586134966 | epot = 2.04081393868864 | etot = 12506.9994274352
9877  ekin = 12504.9505470282 | epot = 2.04888042380395 | etot = 12506.999427452
9878  ekin = 12504.9423327 | epot = 2.05709477069319 | etot = 12506.9994274707
9879  ekin = 12504.9339709441 | epot = 2.06545654711698 | etot = 12506.9994274912
9880  ekin = 12504.9254622228 | epot = 2.07396529089028 | etot = 12506.9994275137
9881  ekin = 12504.9168070283 | epot = 2.08262050980775 | etot = 12506.9994275381
9882  ekin = 12504.9080058828 | epot = 2.09142168157088 | etot = 12506.9994275643
9883  ekin = 12504.8990593388 | epot = 2.10036825371712 | etot = 12506.9994275925
9884  ekin = 12504.8899679791 | epot = 2.10945964355111 | etot = 12506.9994276226
9885  ekin = 12504.8807324166 | epot = 2.11869523807794 | etot = 12506.9994276547
9886  ekin = 12504.8713532947 | epot = 2.12807439393879 | etot = 12506.9994276886
9887  ekin = 12504.8618312872 | epot = 2.13759643734883 | etot = 12506.9994277245
9888  ekin = 12504.8521670983 | epot = 2.14726066403756 | etot = 12506.9994277623
9889  ekin = 12504.8423614629 | epot = 2.15706633919168 | etot = 12506.9994278021
9890  ekin = 12504.8324151465 | epot = 2.1670126974007 | etot = 12506.9994278439
9891  ekin = 12504.8223289449 | epot = 2.17709894260514 | etot = 12506.9994278875
9892  ekin = 12504.8121036851 | epot = 2.18732424804774 | etot = 12506.9994279332
9893  ekin = 12504.8017402246 | epot = 2.19768775622758 | etot = 12506.9994279808
9894  ekin = 12504.7912394515 | epot = 2.2081885788574 | etot = 12506.9994280304
9895  ekin = 12504.7806022851 | epot = 2.21882579682399 | etot = 12506.9994280819
9896  ekin = 12504.7698296753 | epot = 2.2295984601521 | etot = 12506.9994281354
9897  ekin = 12504.7589226029 | epot = 2.24050558797171 | etot = 12506.9994281909
9898  ekin = 12504.7478820799 | epot = 2.251546168489 | etot = 12506.9994282484
9899  ekin = 12504.7367091489 | epot = 2.26271915896103 | etot = 12506.9994283078
9900  ekin = 12504.7254048836 | epot = 2.27402348567431 | etot = 12506.9994283693
9901  ekin = 12504.7139703888 | epot = 2.28545804392736 | etot = 12506.9994284327
9902  ekin = 12504.7024068001 | epot = 2.29702169801751 | etot = 12506.9994284981
9903  ekin = 12504.6907152843 | epot = 2.30871328123198 | etot = 12506.9994285655
9904  ekin = 12504.6788970391 | epot = 2.32053159584341 | etot = 12506.9994286349
9905  ekin = 12504.6669532932 | epot = 2.33247541310993 | etot = 12506.9994287063
9906  ekin = 12504.6548853064 | epot = 2.34454347328017 | etot = 12506.9994287797
9907  ekin = 12504.6426943695 | epot = 2.35673448560297 | etot = 12506.9994288551
9908  ekin = 12504.6303818042 | epot = 2.36904712834229 | etot = 12506.9994289325
9909  ekin = 12504.6179489631 | epot = 2.38148004879731 | etot = 12506.9994290119
9910  ekin = 12504.6053972299 | epot = 2.39403186332786 | etot = 12506.9994290933
9911  ekin = 12504.5927280192 | epot = 2.40670115738544 | etot = 12506.9994291766
9912  ekin = 12504.5799427764 | epot = 2.41948648554996 | etot = 12506.999429262
9913  ekin = 12504.5670429778 | epot = 2.43238637157222 | etot = 12506.9994293494
9914  ekin = 12504.5540301303 | epot = 2.44539930842257 | etot = 12506.9994294387
9915  ekin = 12504.5409057717 | epot = 2.45852375834563 | etot = 12506.9994295301
9916  ekin = 12504.5276714705 | epot = 2.47175815292143 | etot = 12506.9994296234
9917  ekin = 12504.5143288256 | epot = 2.485100893133 | etot = 12506.9994297187
9918  ekin = 12504.5008794665 | epot = 2.49855034944073 | etot = 12506.999429816
9919  ekin = 12504.4873250534 | epot = 2.5121048618635 | etot = 12506.9994299153
9920  ekin = 12504.4736672764 | epot = 2.52576274006685 | etot = 12506.9994300165
9921  ekin = 12504.4599078562 | epot = 2.5395222634583 | etot = 12506.9994301197
9922  ekin = 12504.4460485436 | epot = 2.55338168129004 | etot = 12506.9994302249
9923  ekin = 12504.4320911192 | epot = 2.56733921276915 | etot = 12506.999430332
9924  ekin = 12504.4180373939 | epot = 2.58139304717538 | etot = 12506.9994304411
9925  ekin = 12504.4038892081 | epot = 2.59554134398695 | etot = 12506.9994305521
9926  ekin = 12504.389648432 | epot = 2.60978223301413 | etot = 12506.999430665
9927  ekin = 12504.3753169654 | epot = 2.6241138145412 | etot = 12506.9994307799
9928  ekin = 12504.3608967372 | epot = 2.63853415947653 | etot = 12506.9994308967
9929  ekin = 12504.3463897059 | epot = 2.65304130951128 | etot = 12506.9994310154
9930  ekin = 12504.3317978587 | epot = 2.66763327728668 | etot = 12506.999431136
9931  ekin = 12504.3171232119 | epot = 2.68230804657009 | etot = 12506.9994312585
9932  ekin = 12504.3023678105 | epot = 2.69706357244006 | etot = 12506.9994313829
9933  ekin = 12504.2875337277 | epot = 2.71189778148044 | etot = 12506.9994315091
9934  ekin = 12504.2726230653 | epot = 2.72680857198372 | etot = 12506.9994316372
9935  ekin = 12504.257637953 | epot = 2.74179381416384 | etot = 12506.9994317672
9936  ekin = 12504.2425805486 | epot = 2.75685135037852 | etot = 12506.999431899
9937  ekin = 12504.2274530372 | epot = 2.77197899536115 | etot = 12506.9994320326
9938  ekin = 12504.2122576315 | epot = 2.78717453646267 | etot = 12506.999432168
9939  ekin = 12504.1969965712 | epot = 2.80243573390329 | etot = 12506.9994323051
9940  ekin = 12504.1816721231 | epot = 2.81776032103432 | etot = 12506.9994324441
9941  ekin = 12504.1662865802 | epot = 2.83314600461025 | etot = 12506.9994325848
9942  ekin = 12504.1508422622 | epot = 2.84859046507105 | etot = 12506.9994327272
9943  ekin = 12504.1353415146 | epot = 2.86409135683504 | etot = 12506.9994328714
9944  ekin = 12504.1197867087 | epot = 2.87964630860226 | etot = 12506.9994330173
9945  ekin = 12504.1041802412 | epot = 2.89525292366853 | etot = 12506.9994331648
9946  ekin = 12504.0885245338 | epot = 2.9109087802503 | etot = 12506.999433314
9947  ekin = 12504.0728220331 | epot = 2.92661143182037 | etot = 12506.9994334649
9948  ekin = 12504.0570752099 | epot = 2.94235840745452 | etot = 12506.9994336174
9949  ekin = 12504.0412865592 | epot = 2.95814721218936 | etot = 12506.9994337714
9950  ekin = 12504.0254585997 | epot = 2.97397532739115 | etot = 12506.9994339271
9951  ekin = 12504.0095938731 | epot = 2.98984021113597 | etot = 12506.9994340843
9952  ekin = 12503.9936949444 | epot = 3.00573929860108 | etot = 12506.999434243
9953  ekin = 12503.9777644007 | epot = 3.02167000246778 | etot = 12506.9994344032
9954  ekin = 12503.9618048516 | epot = 3.03762971333553 | etot = 12506.9994345649
9955  ekin = 12503.9458189279 | epot = 3.05361580014767 | etot = 12506.999434728
9956  ekin = 12503.929809282 | epot = 3.06962561062853 | etot = 12506.9994348926
9957  ekin = 12503.9137785868 | epot = 3.08565647173231 | etot = 12506.9994350586
9958  ekin = 12503.8977295358 | epot = 3.10170569010329 | etot = 12506.9994352259
9959  ekin = 12503.881664842 | epot = 3.11777055254783 | etot = 12506.9994353945
9960  ekin = 12503.865587238 | epot = 3.13384832651788 | etot = 12506.9994355645
9961  ekin = 12503.8494994751 | epot = 3.14993626060625 | etot = 12506.9994357357
9962  ekin = 12503.8334043231 | epot = 3.16603158505344 | etot = 12506.9994359082
9963  ekin = 12503.8173045696 | epot = 3.1821315122661 | etot = 12506.9994360819
9964  ekin = 12503.8012030194 | epot = 3.19823323734705 | etot = 12506.9994362567
9965  ekin = 12503.7851024941 | epot = 3.21433393863712 | etot = 12506.9994364327
9966  ekin = 12503.7690058315 | epot = 3.2304307782682 | etot = 12506.9994366098
9967  ekin = 12503.7529158852 | epot = 3.24652090272812 | etot = 12506.9994367879
9968  ekin = 12503.7368355237 | epot = 3.26260144343677 | etot = 12506.9994369671
9969  ekin = 12503.72076763 | epot = 3.27866951733381 | etot = 12506.9994371473
9970  ekin = 12503.7047151009 | epot = 3.2947222274776 | etot = 12506.9994373284
9971  ekin = 12503.6886808468 | epot = 3.31075666365533 | etot = 12506.9994375105
9972  ekin = 12503.6726677904 | epot = 3.32676990300459 | etot = 12506.9994376934
9973  ekin = 12503.6566788665 | epot = 3.34275901064572 | etot = 12506.9994378771
9974  ekin = 12503.6407170213 | epot = 3.35872104032528 | etot = 12506.9994380617
9975  ekin = 12503.6247852119 | epot = 3.3746530350704 | etot = 12506.999438247
9976  ekin = 12503.6088864051 | epot = 3.39055202785378 | etot = 12506.999438433
9977  ekin = 12503.5930235773 | epot = 3.40641504226935 | etot = 12506.9994386196
9978  ekin = 12503.5771997137 | epot = 3.42223909321833 | etot = 12506.9994388069
9979  ekin = 12503.5614178072 | epot = 3.43802118760566 | etot = 12506.9994389948
9980  ekin = 12503.5456808581 | epot = 3.4537583250465 | etot = 12506.9994391831
9981  ekin = 12503.5299918734 | epot = 3.46944749858273 | etot = 12506.999439372
9982  ekin = 12503.5143538659 | epot = 3.48508569540922 | etot = 12506.9994395613
9983  ekin = 12503.4987698534 | epot = 3.50066989760963 | etot = 12506.999439751
9984  ekin = 12503.4832428581 | epot = 3.51619708290165 | etot = 12506.999439941
9985  ekin = 12503.467775906 | epot = 3.53166422539138 | etot = 12506.9994401314
9986  ekin = 12503.4523720256 | epot = 3.54706829633663 | etot = 12506.9994403219
9987  ekin = 12503.4370342478 | epot = 3.56240626491898 | etot = 12506.9994405127
9988  ekin = 12503.4217656046 | epot = 3.57767509902422 | etot = 12506.9994407036
9989  ekin = 12503.4065691286 | epot = 3.59287176603099 | etot = 12506.9994408946
9990  ekin = 12503.391447852 | epot = 3.60799323360745 | etot = 12506.9994410856
9991  ekin = 12503.3764048061 | epot = 3.62303647051554 | etot = 12506.9994412766
9992  ekin = 12503.3614430202 | epot = 3.63799844742265 | etot = 12506.9994414676
9993  ekin = 12503.3465655207 | epot = 3.6528761377203 | etot = 12506.9994416584
9994  ekin = 12503.3317753307 | epot = 3.66766651834975 | etot = 12506.9994418491
9995  ekin = 12503.3170754689 | epot = 3.68236657063391 | etot = 12506.9994420395
9996  ekin = 12503.3024689485 | epot = 3.69697328111552 | etot = 12506.9994422297
9997  ekin = 12503.2879587771 | epot = 3.71148364240111 | etot = 12506.9994424195
9998  ekin = 12503.2735479549 | epot = 3.72589465401039 | etot = 12506.9994426089
9999  ekin = 12503.2592394746 | epot = 3.74020332323084 | etot = 12506.9994427979
10000  ekin = 12503.2450363204 | epot = 3.75440666597701 | etot = 12506.9994429863
     10000   1190.7852      0.46930083     0              1563.3749      52.264915    
Loop time of 398.173 on 16 procs for 10000 steps with 8 atoms

Performance: 2169.912 tau/day, 25.115 timesteps/s, 200.918 atom-step/s
187.1% CPU use with 8 MPI tasks x 2 OpenMP threads

MPI task timing breakdown:
Section |  min time  |  avg time  |  max time  |%varavg| %total
---------------------------------------------------------------
Pair    | 55.316     | 75.159     | 92.877     | 147.5 | 18.88
Neigh   | 0.98399    | 1.3705     | 1.6153     |  19.2 |  0.34
Comm    | 64.393     | 66.545     | 68.459     |  22.0 | 16.71
Output  | 0.77811    | 0.89575    | 0.9589     |   5.6 |  0.22
Modify  | 133.22     | 149.16     | 172.37     | 108.1 | 37.46
Other   |            | 105        |            |       | 26.38

Nlocal:              1 ave           2 max           0 min
Histogram: 4 0 0 0 0 0 0 0 0 4
Nghost:           36.5 ave          42 max          34 min
Histogram: 3 0 3 0 0 0 0 1 0 1
Neighs:              0 ave           0 max           0 min
Histogram: 8 0 0 0 0 0 0 0 0 0
FullNghs:          3.5 ave           8 max           0 min
Histogram: 4 0 0 0 0 0 0 2 0 2

Total # of neighbors = 28
Ave neighs/atom = 3.5
Neighbor list builds = 136
Dangerous builds = 0

write_data data_out.* nocoeff
System init for write_data ...
Generated 0 of 0 mixed pair_coeff terms from geometric mixing rule

Total wall time: 0:06:39
