LAMMPS data file via write_data, version 10 Dec 2025, timestep = 5000000, units = lj

2830 atoms
2 atom types
348 bonds
1 bond types
2830 ellipsoids

0 92.83177667225557 xlo xhi
0 92.83177667225557 ylo yhi
0 92.83177667225557 zlo zhi

Masses

1 0
2 0

Atoms # hybrid

1029 1 6.536306060916167 2.68108229437881 1.9417854454074905 0 1 1.591549430918954 1 1 0
1495 1 9.07916233540686 2.1123106521901476 0.8375547814150314 0 1 1.591549430918954 0 0 1
1506 1 17.531356312665785 13.881582267311048 2.0178061971558074 0 1 1.591549430918954 0 0 1
109 1 31.234612776452593 15.396557248609874 0.07178530089246256 0 1 1.591549430918954 0 0 0
1242 1 8.404892927459386 17.510506702370563 1.6276655413887788 0 1 1.591549430918954 0 0 1
737 1 21.873892065728676 22.793461032914784 1.5356449623255666 0 1 1.591549430918954 0 0 0
40 1 7.833595930253974 24.405791850972857 0.5527770221166642 0 1 1.591549430918954 0 0 0
160 1 32.959693089102466 25.30228577329346 1.1527909969277967 0 1 1.591549430918954 0 0 0
1422 1 42.467373849775726 24.633698752774016 0.5897327943727018 0 1 1.591549430918954 0 0 1
1550 1 14.537469737784303 30.309129482766245 0.9057806920804914 0 1 1.591549430918954 0 0 1
2365 1 45.56010933698434 32.343473744278356 0.7781851843699878 0 1 1.591549430918954 0 0 1
100 1 10.08369088575305 34.27850244925982 2.1234621310537105 0 1 1.591549430918954 0 0 0
445 1 18.046748507017586 35.00451686196362 1.3337112600571013 0 1 1.591549430918954 0 0 0
1302 1 7.217569183694127 36.276394418581134 1.7928878222755806 0 1 1.591549430918954 0 0 1
1409 1 5.554923484991577 43.31009791566073 1.670704064494843 0 1 1.591549430918954 0 0 1
1433 1 33.3273974740585 43.65612595393619 1.0634654444458398 0 1 1.591549430918954 0 0 1
82 1 31.121698456175128 1.7289976148801867 3.7826133066998806 0 1 1.591549430918954 0 0 0
176 1 21.583173894836992 3.046510729263237 2.1082343315057765 0 1 1.591549430918954 0 0 0
52 1 42.85482388454704 6.347021208270001 3.851561060164006 0 1 1.591549430918954 0 0 0
1381 1 39.68315401448486 10.825482334002942 3.630204527824425 0 1 1.591549430918954 0 0 1
257 1 12.563618025820713 12.510778075249418 3.8780681694900174 0 1 1.591549430918954 0 0 0
112 1 21.08918747458822 13.29571486195839 3.1392380436267326 0 1 1.591549430918954 0 0 0
1420 1 26.042838070955053 13.480191408864131 2.493295343351508 0 1 1.591549430918954 0 0 1
63 1 14.664878301483052 15.556347063612387 3.76856702166998 0 1 1.591549430918954 0 0 0
165 1 12.368006793761433 16.02957922091515 2.589376222471561 0 1 1.591549430918954 0 0 0
186 1 30.536001209281014 19.146013666686134 3.5666930954723894 0 1 1.591549430918954 0 0 0
1912 1 40.1674590681835 19.031004614675787 3.2208798537027317 0 1 1.591549430918954 0 0 1
25 1 46.0550301363777 25.842108631264523 3.1422457448258387 0 1 1.591549430918954 0 0 0
113 1 22.244146921531147 26.98225725930355 2.143328580554573 0 1 1.591549430918954 0 0 0
180 1 19.65761351367412 29.849753746646208 2.720347784027571 0 1 1.591549430918954 0 0 0
1507 1 26.416378301263954 32.26289109218322 2.980570298202177 0 1 1.591549430918954 0 0 1
1521 1 30.928031144110427 31.05628347113379 2.816655838582973 0 1 1.591549430918954 0 0 1
449 1 21.666291672281282 40.19626680305817 3.7128631819603397 0 1 1.591549430918954 0 0 0
937 1 2.202613712957786 41.97530009284855 4.233134504513274 0 1 1.591549430918954 1 0 0
1525 1 11.359130625067111 42.449950762198064 3.39864205651955 0 1 1.591549430918954 0 0 1
1057 1 29.439604307358866 41.06635453537471 2.591931639798838 0 1 1.591549430918954 0 0 0
1496 1 13.721150196109539 0.39912699109500965 4.950043792661607 0 1 1.591549430918954 0 0 1
599 1 42.617020714865575 3.1988922992027233 5.186565715606957 0 1 1.591549430918954 0 0 0
602 1 41.22474182518192 9.418979070132641 5.924222540733516 0 1 1.591549430918954 0 0 0
1436 1 7.237619204821818 14.755665821504575 4.467078464366487 0 1 1.591549430918954 0 0 1
877 1 5.413920040859004 17.875032155522433 5.7523012457271845 0 1 1.591549430918954 1 0 0
17 1 17.48286231574884 23.09273867923988 4.823678398991719 0 1 1.591549430918954 0 0 0
859 1 0.832521870834149 26.14273491624849 5.245491807118497 0 1 1.591549430918954 1 0 0
73 1 36.954208140855414 24.740958315178347 4.452424913292276 0 1 1.591549430918954 0 0 0
658 1 5.822265400689539 27.274367593864834 5.438605068498803 0 1 1.591549430918954 1 0 0
16 1 33.02266598480768 28.253412025096544 4.77187774748519 0 1 1.591549430918954 0 0 0
22 1 45.368058290793 32.020416311896085 4.843675359979174 0 1 1.591549430918954 0 0 0
1501 1 19.038547490264374 34.89797641409588 5.93960398613908 0 1 1.591549430918954 0 0 1
123 1 43.748758296082165 40.09770119518802 4.517991986544886 0 1 1.591549430918954 0 0 0
1801 1 34.3195727110153 41.00332241917583 4.478804366358635 0 1 1.591549430918954 0 0 1
2329 1 44.14508328529349 42.88328045339371 5.309209843935796 0 1 1.591549430918954 0 0 1
299 1 5.182747831194554 45.31211471079106 4.477596805287393 0 1 1.591549430918954 0 0 0
27 1 10.32850734017771 4.403026545698917 7.026413162680654 0 1 1.591549430918954 0 0 0
195 1 4.816750092987793 10.942706713732953 7.273796588563765 0 1 1.591549430918954 0 0 0
1325 1 24.174627051448436 16.11189236197363 6.7315890780044825 0 1 1.591549430918954 0 0 1
156 1 40.940075982614545 18.03716358243364 6.705651105524913 0 1 1.591549430918954 0 0 0
225 1 33.944159153792135 23.547941923896357 7.315734020778873 0 1 1.591549430918954 0 0 0
21 1 38.432892969100884 29.011188020401686 7.982437798253542 0 1 1.591549430918954 0 0 0
298 1 33.2984644020074 33.367494364510605 6.551914018141083 0 1 1.591549430918954 0 0 0
234 1 38.212962962782356 36.32972639613398 7.853046143597932 0 1 1.591549430918954 0 0 0
81 1 39.124395275094706 43.76693477010885 6.599933028540512 0 1 1.591549430918954 0 0 0
139 1 11.787008509502074 0.990404044870934 8.460236529105817 0 1 1.591549430918954 0 0 0
47 1 14.867750046065765 1.048181823303767 7.97995568698004 0 1 1.591549430918954 0 0 0
199 1 23.960205982218447 10.817171501595713 9.37287186193588 0 1 1.591549430918954 0 0 0
841 1 33.23221416676367 18.177944333338775 9.321673395822678 0 1 1.591549430918954 0 0 0
162 1 9.94889989922336 20.287560305444828 8.947989495584691 0 1 1.591549430918954 0 0 0
201 1 39.48800183593946 24.25692018042929 9.513414223520739 0 1 1.591549430918954 0 0 0
611 1 42.68264845656913 24.844421408381457 9.877338949567493 0 1 1.591549430918954 0 0 0
1467 1 3.5085312108498585 27.399259073626677 8.449078837306557 0 1 1.591549430918954 0 0 1
247 1 22.788618097012925 27.227375260813048 8.314588499243245 0 1 1.591549430918954 0 0 0
852 1 5.013796785638101 35.26321492733544 9.226784045478675 0 1 1.591549430918954 1 0 0
1488 1 29.212208023323054 37.65454136473723 9.55494878076505 0 1 1.591549430918954 0 0 1
940 1 31.370435954733168 36.440929757059855 9.577143882595998 0 1 1.591549430918954 0 0 0
235 1 32.98548594125235 38.980346125911666 9.272986088405618 0 1 1.591549430918954 0 0 0
2675 2 45.64895175574414 46.25215498650546 45.87259436936918 0 1 2.203683827426243 0 0 0
453 1 22.303452333964767 42.049550320234395 8.688179010663834 0 1 1.591549430918954 0 0 0
730 1 4.2813095966305985 43.72471849090037 9.61836199151606 0 1 1.591549430918954 1 0 0
72 1 16.738264070309526 42.54376364055345 8.373433296956314 0 1 1.591549430918954 0 0 0
4 1 19.55444648056398 2.0508191734230103 11.990411318408766 0 1 1.591549430918954 0 0 0
148 1 30.353046118514747 6.709071186233952 9.934089066699174 0 1 1.591549430918954 0 0 0
1730 1 42.946244761189845 6.6158951813031495 11.270510998473103 0 1 1.591549430918954 0 1 1
36 1 2.4034650276576985 11.78811758036834 10.472029965238375 0 1 1.591549430918954 0 0 0
1432 1 1.7453964956953747 14.023094837547392 11.405612300093532 0 1 1.591549430918954 0 0 1
803 1 26.37275454941321 18.833555980093845 11.771513054752875 0 1 1.591549430918954 0 0 0
887 1 37.38571935942654 22.999122425464694 12.048184082511199 0 1 1.591549430918954 0 0 0
149 1 26.236138794404187 24.775284521305274 10.646261985984335 0 1 1.591549430918954 0 0 0
281 1 3.579913314045703 37.01354879214586 10.628422460352226 0 1 1.591549430918954 0 0 0
211 1 25.651576691029216 37.368150490273926 10.796773181597391 0 1 1.591549430918954 0 0 0
226 1 16.293523294207972 38.7241256505996 10.69768508304874 0 1 1.591549430918954 0 0 0
77 1 27.467022790536166 43.60050516347198 12.192410444433072 0 1 1.591549430918954 0 0 0
1466 1 39.124934885468335 44.05662778672344 10.729104107523971 0 1 1.591549430918954 0 0 1
45 1 28.935129174224812 0.5125692442474652 12.285997612522856 0 1 1.591549430918954 0 0 0
61 1 16.630829923143157 7.524845094440141 12.569817609824284 0 1 1.591549430918954 0 0 0
634 1 44.15850179594263 13.136529179714033 13.823591182788023 0 1 1.591549430918954 0 0 0
1455 1 34.238955232082155 22.641826370615714 13.027249372829559 0 1 1.591549430918954 0 0 1
437 1 2.1532779661715304 24.244635435946645 13.691703179365408 0 1 1.591549430918954 0 0 0
42 1 21.347567022404146 24.160540777734543 13.83075703163925 0 1 1.591549430918954 0 0 0
107 1 15.702077383854656 26.709681515034084 13.520816396430714 0 1 1.591549430918954 0 0 0
138 1 13.093126118862477 28.60146465979298 12.165122891255542 0 1 1.591549430918954 0 0 0
80 1 34.650513615118165 29.869334874365965 14.2898618728281 0 1 1.591549430918954 0 0 0
1362 1 43.61977060741994 30.375980760943506 12.030109842562787 0 1 1.591549430918954 0 0 1
95 1 41.018944899254556 30.63749273459825 12.803625992249426 0 1 1.591549430918954 0 0 0
701 1 46.32932987359806 31.143540898943698 13.567592431025698 0 1 1.591549430918954 0 0 0
213 1 25.953655752263995 33.0273442219779 13.554892324291822 0 1 1.591549430918954 0 0 0
906 1 30.190195356023054 34.13231793622876 13.892556169222258 0 1 1.591549430918954 0 0 0
329 1 33.15485371412813 36.05645202656862 12.851651346623964 0 1 1.591549430918954 0 0 0
75 1 30.80323956566466 37.96434102577366 13.924845223394687 0 1 1.591549430918954 0 0 0
485 1 36.55061284810201 44.847599052787146 13.869104969326067 0 1 1.591549430918954 0 0 0
989 1 45.43987404923362 45.85733661120919 13.345708039820614 0 1 1.591549430918954 0 0 0
191 1 33.877620739221776 6.82240075806173 14.923949615792012 0 1 1.591549430918954 0 0 0
55 1 25.374019125077428 11.52783679810208 15.44223868659832 0 1 1.591549430918954 0 0 0
1973 1 42.44505469467002 19.44722892612531 15.399477474820095 0 1 1.591549430918954 0 0 1
419 1 4.253996040829976 23.55180642300503 16.01041149545567 0 1 1.591549430918954 0 1 0
301 1 17.47498954598776 23.119858020224292 16.06632249971018 0 1 1.591549430918954 0 0 0
215 1 36.1412159343268 22.329792563464594 15.432652882002587 0 1 1.591549430918954 0 0 0
479 1 36.409418272869985 26.928135422763813 14.397964147084478 0 1 1.591549430918954 0 0 0
760 1 10.963180555075127 28.69300414627553 14.613765709290522 0 1 1.591549430918954 1 0 0
833 1 21.172626918804 28.93853148700675 14.28139277289845 0 1 1.591549430918954 1 0 0
285 1 10.971836167411702 34.27601322945324 14.449530225471237 0 1 1.591549430918954 0 0 0
1465 1 11.6388358491325 39.54941793718426 15.746766732048009 0 1 1.591549430918954 0 0 1
576 1 38.839947616150816 43.439542461480265 15.463060883341605 0 1 1.591549430918954 0 0 0
639 1 46.03796069891316 7.453667686342182 17.405075858473186 0 1 1.591549430918954 0 0 0
766 1 9.103567515934257 8.626566208543927 16.686873945672545 0 1 1.591549430918954 1 0 0
1156 1 39.88452049621029 9.300067194816233 17.530542213050726 0 1 1.591549430918954 0 1 0
217 1 18.03399630753003 10.867811098122969 17.59382231211098 0 1 1.591549430918954 0 0 0
1438 1 33.491751688061306 17.122230426231578 16.587539788444193 0 1 1.591549430918954 0 0 1
182 1 4.345560392633518 20.20906915435826 17.43878441285855 0 1 1.591549430918954 0 0 0
793 1 4.991566802065111 28.115705579196653 16.392038310646736 0 1 1.591549430918954 1 0 0
259 1 14.027105174135194 28.35983691893252 16.946896793971018 0 1 1.591549430918954 0 0 0
118 1 37.75336580702105 28.62980395692593 18.0678510239134 0 1 1.591549430918954 0 0 0
460 1 37.55858014228889 32.859116301401755 16.441853505710952 0 1 1.591549430918954 0 0 0
275 1 31.997638384667205 34.34230267988779 18.137599950495563 0 1 1.591549430918954 0 0 0
194 1 5.2056269596824105 38.18620186368617 17.181026434427796 0 1 1.591549430918954 0 0 0
229 1 21.234695249698362 37.23105330123314 16.755145222346407 0 1 1.591549430918954 0 0 0
345 1 32.68176724186123 41.162011126714084 16.080110243568544 0 1 1.591549430918954 0 0 0
304 1 43.91138098174432 43.53235777684583 16.97700163847841 0 1 1.591549430918954 0 0 0
309 1 20.661190218765455 45.273698118119086 17.383824422293063 0 1 1.591549430918954 0 0 0
177 1 21.838834874286114 3.112143353568849 19.18101183357622 0 1 1.591549430918954 0 0 0
137 1 15.187052161298258 4.7737394141400165 19.20900485431418 0 1 1.591549430918954 0 0 0
771 1 41.1750253695209 5.308460135240478 18.2981432881001 0 1 1.591549430918954 0 0 0
244 1 36.444226719364195 12.026471905801403 19.12773695911221 0 1 1.591549430918954 0 0 0
845 1 39.93403524349935 19.008513237921303 18.9108889050636 0 1 1.591549430918954 0 0 0
2 1 28.82127215768332 20.3580537341015 18.221704991560582 0 1 1.591549430918954 0 0 0
164 1 22.87981204140466 22.774517553692345 19.698392237734986 0 1 1.591549430918954 0 0 0
14 1 34.00080810762688 22.476998000869127 18.36239561185709 0 1 1.591549430918954 0 0 0
889 1 36.7977347442409 23.102187913642116 19.349365645957914 0 1 1.591549430918954 0 0 0
260 1 28.796148717835578 30.28628020135062 18.32950443114333 0 1 1.591549430918954 0 0 0
848 1 34.41503714327875 28.430963210625844 18.97559574522623 0 1 1.591549430918954 0 0 0
209 1 26.897512321255764 33.95699982724667 20.14523686492485 0 1 1.591549430918954 0 0 0
204 1 38.07691998205994 34.01082601238698 19.060780831569467 0 1 1.591549430918954 0 0 0
38 1 5.219067018974094 38.264257080047265 19.800857664955284 0 1 1.591549430918954 0 0 0
192 1 45.925412452706766 42.38291569596057 19.64084580183916 0 1 1.591549430918954 0 0 0
97 1 19.27616716417559 42.17533380656531 20.237437845617993 0 1 1.591549430918954 0 0 0
394 1 3.681005373782089 0.27674513146204366 21.37094541127204 0 1 1.591549430918954 0 1 0
15 1 10.154974002445174 0.9658515518520325 21.033765186215355 0 1 1.591549430918954 0 0 0
538 1 33.76153614108639 2.161988720169969 21.761150326313874 0 1 1.591549430918954 0 1 0
90 1 24.26139666195579 7.519720658078987 21.45189362596657 0 1 1.591549430918954 0 0 0
277 1 40.335689809541556 6.109225646149289 21.206269386725833 0 1 1.591549430918954 0 0 0
132 1 28.39258250283847 8.224524747911978 20.772033941569198 0 1 1.591549430918954 0 0 0
46 1 17.509397637355626 20.338373301787648 22.144639051267514 0 1 1.591549430918954 0 0 0
242 1 32.46849254828397 21.2353031060216 20.80865729963104 0 1 1.591549430918954 0 0 0
447 1 14.104029803607169 31.17841924226638 21.488745583377245 0 1 1.591549430918954 0 0 0
37 1 17.108680203358833 30.68269627651147 20.882220963258035 0 1 1.591549430918954 0 0 0
295 1 11.385033823947493 33.42088936656958 21.495266963093837 0 1 1.591549430918954 0 0 0
56 1 22.913377635719744 33.3937502001692 20.984805656907977 0 1 1.591549430918954 0 0 0
48 1 45.865689152899485 33.455629887555716 21.741606866368 0 1 1.591549430918954 0 0 0
677 1 40.996458614603945 34.5041444319174 21.34086977665213 0 1 1.591549430918954 0 0 0
196 1 0.9028276042891394 37.757525988762886 20.856018053431338 0 1 1.591549430918954 0 0 0
911 1 35.5801834449683 41.84758324920279 20.67897279856689 0 1 1.591549430918954 0 0 0
214 1 29.225100997881366 44.89633140718097 21.678437854167065 0 1 1.591549430918954 0 0 0
390 1 12.894802581574215 5.172995134751768 23.259183231653513 0 1 1.591549430918954 0 1 0
129 1 7.9953829955351345 23.24313436056008 22.390541494072927 0 1 1.591549430918954 0 0 0
210 1 27.499339644280024 22.524328782083938 22.319702554618832 0 1 1.591549430918954 0 0 0
486 1 38.33325792137653 43.84884436352377 45.039498123501595 0 1 1.591549430918954 0 0 0
189 1 30.33980810084363 27.92683480804974 22.795954911003964 0 1 1.591549430918954 0 0 0
205 1 41.3172091804279 26.516687022537702 23.614260524355405 0 1 1.591549430918954 0 0 0
53 1 28.08794494722919 32.53597794030126 22.69600053398336 0 1 1.591549430918954 0 0 0
216 1 7.934329113891109 42.11325530970427 22.406279347923487 0 1 1.591549430918954 0 0 0
461 1 12.249058876398617 42.04201532467744 22.5690125441381 0 1 1.591549430918954 0 0 0
340 1 21.573501799866143 46.04949801637504 23.303111101840756 0 1 1.591549430918954 0 0 0
1 1 5.167607322299175 1.0721807401244992 25.067365911638007 0 1 1.591549430918954 0 0 0
163 1 9.332614693181114 0.7789521212296535 24.64544809152149 0 1 1.591549430918954 0 0 0
410 1 17.506795913580252 1.7425544322920516 24.49807122327575 0 1 1.591549430918954 0 1 0
261 1 12.738027182205675 8.386996932942251 25.6149446650245 0 1 1.591549430918954 0 0 0
86 1 37.86891143937709 9.280882183514942 24.470885836775764 0 1 1.591549430918954 0 0 0
151 1 35.94359509816705 11.712994776417545 25.084886298162864 0 1 1.591549430918954 0 0 0
264 1 40.93877341417485 21.890740516622948 24.382155533336494 0 1 1.591549430918954 0 0 0
223 1 20.663456198614487 25.74754746109678 25.396846174359307 0 1 1.591549430918954 0 0 0
231 1 6.63249125539077 26.850522091588644 25.27698686762502 0 1 1.591549430918954 0 0 0
2474 2 27.342657705795247 28.21779054734592 25.934574494932047 0 1 2.203683827426243 0 0 0
43 1 14.475578865532333 28.10997299394453 25.36089416253781 0 1 1.591549430918954 0 0 0
2475 2 28.75320051537737 29.290768618868803 25.361172306798352 0 1 2.203683827426243 0 0 0
28 1 39.87904506416011 30.177356103992423 25.818298469585198 0 1 1.591549430918954 0 0 0
2476 2 29.416267312354428 31.031296779156126 25.36697414638944 0 1 2.203683827426243 0 0 0
93 1 43.00991162867771 32.153759183402855 25.536975512982252 0 1 1.591549430918954 0 0 0
283 1 21.432692073195597 32.71659798478923 24.466831993763222 0 1 1.591549430918954 0 0 0
1100 1 35.6754203131015 33.05622002267289 25.5839850229499 0 1 1.591549430918954 0 0 0
241 1 11.992319188038055 35.836529280615366 24.86135095944816 0 1 1.591549430918954 0 0 0
170 1 24.93892270834804 36.19611096924269 24.776929566727997 0 1 1.591549430918954 0 0 0
703 1 36.42524535985109 37.40670555921071 24.6272911532278 0 1 1.591549430918954 0 0 0
320 1 44.69156066571212 36.40741885177524 24.656481241955174 0 1 1.591549430918954 0 0 0
332 1 41.2399214830485 42.43947810365063 24.49267568400196 0 1 1.591549430918954 0 0 0
78 1 11.106476791253757 44.963154828536744 25.50219746520272 0 1 1.591549430918954 0 0 0
175 1 35.091867998152125 3.9076571237489124 27.501442582521054 0 1 1.591549430918954 0 0 0
136 1 45.04541359355976 8.865169431528823 26.38537979144277 0 1 1.591549430918954 0 0 0
412 1 40.99666908753048 14.640185773783047 26.657693177340853 0 1 1.591549430918954 0 1 0
522 1 2.3092455548446362 19.027022958021856 26.926524629271494 0 1 1.591549430918954 0 1 0
10 1 39.388521475821314 19.21479204419468 26.810451541758894 0 1 1.591549430918954 0 0 0
74 1 20.640078425367467 20.814437179198954 28.314980267111885 0 1 1.591549430918954 0 0 0
271 1 45.17861581553966 23.501494214982895 26.26581615631508 0 1 1.591549430918954 0 0 0
251 1 36.028333686437456 25.063776218020415 26.691255109607177 0 1 1.591549430918954 0 0 0
222 1 40.49705693315539 26.121226950413337 26.362113291896037 0 1 1.591549430918954 0 0 0
2482 2 37.71498706759286 27.834534969760803 27.213948130140597 0 1 2.203683827426243 0 0 0
773 1 44.28681071396278 26.57772511265119 26.742169641387747 0 1 1.591549430918954 0 0 0
2472 2 25.390735616519965 30.008594775720724 27.783106767820552 0 1 2.203683827426243 0 0 0
2473 2 26.4790717342245 28.498729565920595 27.571533880345832 0 1 2.203683827426243 0 0 0
2478 2 31.62423492566813 29.30535067610206 27.43907164371029 0 1 2.203683827426243 0 0 0
2479 2 33.41434748624903 29.149528035147405 26.951276137528268 0 1 2.203683827426243 0 0 0
2480 2 34.92229785986004 28.326834551379022 26.280093529436936 0 1 2.203683827426243 0 0 0
2481 2 36.096076001042654 28.597849126963858 27.692550580530405 0 1 2.203683827426243 0 0 0
2477 2 30.61176990333536 30.704410778197868 26.75120456103072 0 1 2.203683827426243 0 0 0
102 1 5.055959535127124 32.28653165889425 27.053036805947105 0 1 1.591549430918954 0 0 0
255 1 33.038206096355225 38.32051798092394 26.187229522769208 0 1 1.591549430918954 0 0 0
836 1 41.522193137720244 38.52745263073886 27.17002429806161 0 1 1.591549430918954 0 0 0
583 1 29.902951122432846 42.43787953001069 26.39181231950408 0 1 1.591549430918954 0 0 0
50 1 11.413954144863197 5.947137724304108 30.04852127673393 0 1 1.591549430918954 0 0 0
155 1 45.33560388155631 13.856475790051926 29.538277401710026 0 1 1.591549430918954 0 0 0
769 1 46.19071114965289 21.997485800069803 28.93183823654112 0 1 1.591549430918954 0 0 0
67 1 6.948570206067698 22.4803209029737 28.83762999888268 0 1 1.591549430918954 0 0 0
2485 2 38.93766194104155 24.195604870641496 29.242015386425326 0 1 2.203683827426243 0 0 0
2486 2 40.534883343462546 23.45698030498103 29.871949252541363 0 1 2.203683827426243 0 0 0
2484 2 37.84144550145563 25.43269591688757 28.43758600643643 0 1 2.203683827426243 0 0 0
2488 2 43.497748759662066 25.245337389998017 30.122047707136087 0 1 2.203683827426243 0 0 0
2489 2 45.2968452897056 24.779117418989255 29.932899062490023 0 1 2.203683827426243 0 0 0
2483 2 38.3211420118995 27.203739395038742 28.864569982119303 0 1 2.203683827426243 0 0 0
256 1 43.65735767768374 28.894257217018197 28.2788060253688 0 1 1.591549430918954 0 0 0
427 1 19.355100327438407 31.202260128154396 29.969880510854235 0 1 1.591549430918954 0 0 0
2471 2 23.911620120437924 30.383795444008953 28.818559189008326 0 1 2.203683827426243 0 0 0
83 1 27.642845596685913 35.169722987284764 28.853925856394866 0 1 1.591549430918954 0 0 0
29 1 28.65735728488675 37.6647777030071 30.099329669039243 0 1 1.591549430918954 0 0 0
565 1 19.462632369437173 39.02292113938294 29.214469644364062 0 1 1.591549430918954 0 0 0
801 1 26.365127437990118 40.26261149288232 28.689632582976216 0 1 1.591549430918954 0 0 0
206 1 28.214041996530003 42.53974463409033 30.039417901179867 0 1 1.591549430918954 0 0 0
559 1 36.29152958162982 1.1217725461596588 30.32910154251236 0 1 1.591549430918954 0 1 0
269 1 32.75667132751559 2.7775262237386262 32.41089842201619 0 1 1.591549430918954 0 0 0
871 1 32.26761876179973 11.985885712669027 31.095455921850895 0 1 1.591549430918954 0 0 0
143 1 8.3566279999126 15.653537528360568 30.332083378115854 0 1 1.591549430918954 0 0 0
2487 2 42.04035332990481 24.194666933697636 30.558846898397096 0 1 2.203683827426243 0 0 0
2491 2 45.69282455006191 22.754577376555787 32.03631767172384 0 1 2.203683827426243 0 0 0
2490 2 45.57701956837208 24.540613027286465 31.762020148068828 0 1 2.203683827426243 0 0 0
183 1 13.215979273486953 30.574788023685713 30.681346809613334 0 1 1.591549430918954 0 0 0
2520 2 40.09714731518214 35.719875298958364 32.19995226973298 0 1 2.203683827426243 0 0 0
2521 2 41.856389540882326 35.40301225900324 31.733635790430792 0 1 2.203683827426243 0 0 0
2522 2 43.49502228345526 35.97949507065562 32.33347677167303 0 1 2.203683827426243 0 0 0
563 1 16.170269011760997 46.01881264229155 30.37227156567929 0 1 1.591549430918954 0 0 0
13 1 35.93290549879246 5.373880974738658 32.607917478849174 0 1 1.591549430918954 0 0 0
181 1 29.286224079023988 18.06603647957329 32.24586760122603 0 1 1.591549430918954 0 0 0
674 1 40.48602800716588 22.934584182678602 32.48207582830076 0 1 1.591549430918954 0 0 0
172 1 19.462683903871696 26.014393404836234 33.30926384350427 0 1 1.591549430918954 0 0 0
168 1 3.759082484089861 28.05124326052513 34.11465449260129 0 1 1.591549430918954 0 0 0
203 1 29.40949934040201 27.72494352782137 33.63407128676141 0 1 1.591549430918954 0 0 0
267 1 33.9759160199994 29.61688035451941 32.77727567437412 0 1 1.591549430918954 0 0 0
443 1 32.79702274850888 33.53324135589741 32.42868079398164 0 1 1.591549430918954 0 0 0
825 1 2.9826691015093547 35.86145550169097 33.15214523382483 0 1 1.591549430918954 1 0 0
276 1 22.99401658303749 35.386336339257795 33.64240518192036 0 1 1.591549430918954 0 0 0
2517 2 36.379248664724216 35.61501445843773 33.64416646047862 0 1 2.203683827426243 0 0 0
2519 2 39.02897581966265 35.27121853066886 33.623171185749136 0 1 2.203683827426243 0 0 0
2523 2 44.42793549495473 36.09883576889624 33.913495252105065 0 1 2.203683827426243 0 0 0
2513 2 31.818709309227035 36.32452361088158 32.91111291315593 0 1 2.203683827426243 0 0 0
2512 2 32.79795829905246 37.88945375804399 33.0488993728383 0 1 2.203683827426243 0 0 0
2524 2 45.61730511944799 37.44949325009585 33.60055321260892 0 1 2.203683827426243 0 0 0
2511 2 31.31057019269781 38.920829929064666 33.33079082354568 0 1 2.203683827426243 0 0 0
700 1 43.279073760772626 38.54163826827269 33.900648532013264 0 1 1.591549430918954 0 0 0
103 1 5.727386317195816 42.255117763211906 33.617396073337005 0 1 1.591549430918954 0 0 0
484 1 21.602306734128998 40.65480343280074 32.52325547844319 0 1 1.591549430918954 0 0 0
2510 2 31.248451921820273 40.684652478093724 33.87794899879072 0 1 2.203683827426243 0 0 0
847 1 40.801912545350504 41.6898987867535 32.981909693107944 0 1 1.591549430918954 0 0 0
1319 1 37.122526773238995 45.252126499163026 34.15336994178471 0 1 1.591549430918954 0 0 0
587 1 22.97583410551804 0.02342623415820562 36.21528251421484 0 1 1.591549430918954 0 1 0
266 1 26.590107937621653 23.735264908571473 34.85859934359426 0 1 1.591549430918954 0 0 0
190 1 46.3011635332064 25.955786680021045 35.37031125260259 0 1 1.591549430918954 0 0 0
173 1 13.109796422200478 28.411956564406083 34.480679592562865 0 1 1.591549430918954 0 0 0
239 1 26.07395930064859 29.67789547730595 35.92625370218131 0 1 1.591549430918954 0 0 0
2514 2 32.00590096715946 35.61432791015947 34.55453485336995 0 1 2.203683827426243 0 0 0
2518 2 37.70184596894159 35.14883525954424 34.88894215870246 0 1 2.203683827426243 0 0 0
722 1 7.168961928142331 36.5227487404154 35.00937162984846 0 1 1.591549430918954 1 0 0
2515 2 33.40835658829828 36.54461657222311 35.38550493208498 0 1 2.203683827426243 0 0 0
2516 2 35.13357453634116 36.47886789568742 34.723278771141715 0 1 2.203683827426243 0 0 0
237 1 23.90380464565634 39.62669374066271 35.33453590854913 0 1 1.591549430918954 0 0 0
2509 2 31.11853157386261 41.95611806533076 35.19761798397933 0 1 2.203683827426243 0 0 0
2502 2 21.32235673200717 43.964058293053846 36.242189171862336 0 1 2.203683827426243 0 0 0
2503 2 22.97877495016379 43.13199881962916 36.299941279632584 0 1 2.203683827426243 0 0 0
430 1 13.080895735634654 44.467596466010995 34.20255886349799 0 1 1.591549430918954 0 0 0
513 1 43.19977911551581 45.179823295942874 35.49804993958794 0 1 1.591549430918954 0 0 0
134 1 34.650992783715054 16.406809184612563 38.163159770576996 0 1 1.591549430918954 0 0 0
94 1 28.29433821384001 20.51923962472077 38.49359338233265 0 1 1.591549430918954 0 0 0
146 1 20.874455934419824 38.196278552790005 37.587686813956 0 1 1.591549430918954 0 0 0
1117 1 14.140199223431454 39.21143653929782 36.56727713902461 0 1 1.591549430918954 1 0 0
2501 2 20.46668373833705 44.09481560404829 37.83554760004585 0 1 2.203683827426243 0 0 0
2504 2 23.83677568654911 43.933776358251954 37.69773733456266 0 1 2.203683827426243 0 0 0
2506 2 26.318052717690918 42.73861691961742 37.01855822631877 0 1 2.203683827426243 0 0 0
2507 2 28.091714639051094 43.15607348131463 36.735891518609044 0 1 2.203683827426243 0 0 0
2508 2 29.78546165993064 42.54433162552441 36.34024097629921 0 1 2.203683827426243 0 0 0
568 1 34.064527152602096 42.69678237430018 36.768726403494895 0 1 1.591549430918954 0 0 0
664 1 26.8243985328788 10.85500537800761 39.23826602161645 0 1 1.591549430918954 1 0 0
1176 1 1.9057758938249811 17.515868427778077 39.50404690801067 0 1 1.591549430918954 1 1 0
553 1 15.461447430208942 19.448269145125746 39.34594760343663 0 1 1.591549430918954 0 1 0
835 1 19.30881619033598 25.63657000426956 39.67605300493847 0 1 1.591549430918954 0 0 0
1926 1 9.86065597622414 27.607794404597172 40.0332821478837 0 1 1.591549430918954 1 0 0
212 1 26.776358579219693 28.853252019037175 39.38203245357986 0 1 1.591549430918954 0 0 0
166 1 30.3774952704013 31.194665724688143 39.90891246184575 0 1 1.591549430918954 0 0 0
1874 1 33.4395865529598 30.218977741612445 39.02500325120642 0 1 1.591549430918954 0 0 0
2634 2 34.52328983600679 35.361988083706834 40.189563517188006 0 1 2.203683827426243 0 0 0
2635 2 36.04964420675683 35.97811168975548 39.31767751428899 0 1 2.203683827426243 0 0 0
365 1 32.22598188830444 40.702059322580126 38.99088842632712 0 1 1.591549430918954 0 0 0
2505 2 25.495580730549005 43.598126187044684 38.4409402014943 0 1 2.203683827426243 0 0 0
457 1 21.63192380734734 45.51496348950084 40.57297982062996 0 1 1.591549430918954 0 0 0
406 1 33.455953405460754 4.186240742909666 40.70922272469367 0 1 1.591549430918954 0 1 0
1623 1 17.951713255799632 4.018847276406072 40.8369012835212 0 1 1.591549430918954 0 1 0
184 1 42.41205693263935 13.39940179830838 40.7628861531109 0 1 1.591549430918954 0 0 0
2593 2 25.478924527703768 16.809120202034986 41.945400939233615 0 1 2.203683827426243 0 0 0
2594 2 25.85899836062532 18.33038603860335 40.894304961622595 0 1 2.203683827426243 0 0 0
2595 2 25.138786684253322 19.824437889475067 41.73844340350857 0 1 2.203683827426243 0 0 0
2596 2 25.269987842506158 21.157253039807312 40.48417302411052 0 1 2.203683827426243 0 0 0
2597 2 26.946998485595202 22.021837290153552 40.70217417475386 0 1 2.203683827426243 0 0 0
2598 2 27.907179441622805 23.374077506470467 41.51123606119805 0 1 2.203683827426243 0 0 0
2599 2 29.621349403886096 23.82110778874836 42.05966841946393 0 1 2.203683827426243 0 0 0
1326 1 31.405049304809037 28.11330660269271 41.9297445947817 0 1 1.591549430918954 0 0 0
279 1 35.115028922116565 27.18001958913053 41.002395137444594 0 1 1.591549430918954 0 0 0
1904 1 44.192112735551575 31.4882343188134 41.809029080654966 0 1 1.591549430918954 0 0 0
2622 2 19.834027660680235 35.064490885182394 42.27255568076388 0 1 2.203683827426243 0 0 0
2621 2 20.985716284606905 36.206922374119195 41.50997888879033 0 1 2.203683827426243 0 0 0