LAMMPS data file via write_data, version 10 Dec 2025, timestep = 50000, units = lj

2528 atoms
2 atom types
0 bonds
1 bond types
2528 ellipsoids

0 92.83177667225557 xlo xhi
0 92.83177667225557 ylo yhi
0 92.83177667225557 zlo zhi

Masses

1 0
2 0

Atoms # hybrid

1 1 9.31806559204132 9.930587190994073 9.181913494800382 0 1 5.968310365946075 0 0 0
9 1 18.098926180046217 9.928491729678496 8.748995910175223 0 1 5.968310365946075 0 0 0
13 1 20.936793781655147 11.540917832167688 10.861197111836399 0 1 5.968310365946075 0 0 0
17 1 28.606087410486175 9.275039726415441 9.703070013540566 0 1 5.968310365946075 0 0 0
25 1 37.18140516054114 8.914699736035898 9.624548667404282 0 1 5.968310365946075 0 0 0
33 1 46.993826461928656 9.259892657927066 9.060446295923425 0 1 5.968310365946075 0 0 0
41 1 55.383554836649196 9.958347262302409 9.6197199406525 0 1 5.968310365946075 0 0 0
49 1 65.47719095444779 9.331402066810297 9.080026113335277 0 1 5.968310365946075 0 0 0
57 1 73.69378269738137 9.929634071544042 8.816310240729292 0 1 5.968310365946075 0 0 0
65 1 84.06862924541073 9.996088466331072 9.100746454333814 0 1 5.968310365946075 0 0 0
4 1 13.448111685043049 14.309869823491514 9.663823170520642 0 1 5.968310365946075 0 0 0
12 1 23.299994070164548 13.474428806502889 9.574067419955396 0 1 5.968310365946075 0 0 0
20 1 32.9592326842174 13.405262474463317 8.931254245976545 0 1 5.968310365946075 0 0 0
28 1 41.51220748189523 13.210330526102585 9.504177201542758 0 1 5.968310365946075 0 0 0
36 1 51.88735851809261 13.176496888433295 9.6051685972334 0 1 5.968310365946075 0 0 0
44 1 59.54399973063847 13.903419366467038 8.58408424691673 0 1 5.968310365946075 0 0 0
52 1 68.96130984239323 14.16695600129285 9.650048008087692 0 1 5.968310365946075 0 0 0
60 1 78.75276770941454 13.513272596198764 8.454225774497088 0 1 5.968310365946075 0 0 0
8 1 16.168285269542054 15.39467115011061 10.810581633450036 0 1 5.968310365946075 0 0 0
16 1 26.004203191045818 15.83212348736197 11.156409860127761 0 1 5.968310365946075 0 0 0
24 1 34.82817491868667 16.86053762613537 10.79747047666755 0 1 5.968310365946075 0 0 0
40 1 53.57940267912786 15.926896144675567 10.82452290665257 0 1 5.968310365946075 0 0 0
48 1 63.417653479055396 15.569710192982843 11.577679442812164 0 1 5.968310365946075 0 0 0
64 1 81.44630507987912 15.656185410135464 10.932718483061857 0 1 5.968310365946075 0 0 0
67 1 9.915129639755078 18.452221329803788 9.244866582876183 0 1 5.968310365946075 0 0 0
75 1 19.333010412894648 17.87121552935528 8.570467424047463 0 1 5.968310365946075 0 0 0
83 1 28.500942255858725 18.48704513053573 10.13207364393834 0 1 5.968310365946075 0 0 0
91 1 37.03555768493339 19.31716743227835 9.533209612151678 0 1 5.968310365946075 0 0 0
99 1 46.08996221696763 18.124927343757204 9.7418037044619 0 1 5.968310365946075 0 0 0
107 1 55.12525885187064 19.29141603055623 9.808884281910208 0 1 5.968310365946075 0 0 0
115 1 65.79183138478004 19.38015802333265 8.997572436027196 0 1 5.968310365946075 0 0 0
123 1 73.98782728268417 18.200477808130668 9.847677018844065 0 1 5.968310365946075 0 0 0
131 1 84.38674157584373 19.261724020994077 9.947217375157164 0 1 5.968310365946075 0 0 0
70 1 13.812037782567163 23.068644557106627 8.930356549659264 0 1 5.968310365946075 0 0 0
78 1 22.409410437724336 22.91951239413233 8.761431124899827 0 1 5.968310365946075 0 0 0
86 1 31.685138540961987 22.942491833816764 8.857812911806901 0 1 5.968310365946075 0 0 0
94 1 41.97575557354007 23.13336663120676 9.667356077731865 0 1 5.968310365946075 0 0 0
103 1 48.26606257188635 20.079129971105623 11.26659255820426 0 1 5.968310365946075 0 0 0
111 1 57.98447958127885 21.495200579789717 10.925633580708174 0 1 5.968310365946075 0 0 0
118 1 68.82427440552863 23.095704568582637 9.777185109467707 0 1 5.968310365946075 0 0 0
74 1 16.16368660746869 25.655512947966443 11.480301222302794 0 1 5.968310365946075 0 0 0
82 1 25.71086510637879 25.826857255064752 11.024599428402817 0 1 5.968310365946075 0 0 0
90 1 35.42314399997787 24.95757123980549 10.844896621811964 0 1 5.968310365946075 0 0 0
98 1 43.89057057137499 25.33406003958585 11.009551623711625 0 1 5.968310365946075 0 0 0
102 1 51.490571459416316 23.77936614340111 8.6870668916397 0 1 5.968310365946075 0 0 0
110 1 59.999336315431044 23.218388993157607 8.954107599053158 0 1 5.968310365946075 0 0 0
114 1 62.5486751625515 26.36613085897035 11.233814992120708 0 1 5.968310365946075 0 0 0
126 1 78.73271672631844 23.21892878394745 9.329997258451767 0 1 5.968310365946075 0 0 0
130 1 82.03276119590427 25.035638892769853 11.514559720119147 0 1 5.968310365946075 0 0 0
133 1 9.253257614390249 28.055439121386833 8.581531259228809 0 1 5.968310365946075 0 0 0
141 1 18.58955545663005 28.598122992205738 8.711025991499339 0 1 5.968310365946075 0 0 0
149 1 27.81267900218007 28.048024626413287 9.193919336543372 0 1 5.968310365946075 0 0 0
157 1 36.32773972033754 27.20582886652631 8.6300771456507 0 1 5.968310365946075 0 0 0
165 1 46.35698951146586 28.00623434868607 9.49183845960347 0 1 5.968310365946075 0 0 0
173 1 56.10884358446516 27.87392068643721 8.489621198244619 0 1 5.968310365946075 0 0 0
181 1 64.99494360377287 27.78822437807657 10.050776624510844 0 1 5.968310365946075 0 0 0
189 1 73.70440161361658 27.822778836748746 9.889698473249082 0 1 5.968310365946075 0 0 0
197 1 83.5843015186866 28.273534192811617 9.4528823138276 0 1 5.968310365946075 0 0 0
145 1 21.701246560777996 30.240394080644197 11.516693041549766 0 1 5.968310365946075 0 0 0
161 1 39.38375220064067 30.526716023687985 11.155548873912105 0 1 5.968310365946075 0 0 0
169 1 47.88382083566765 29.907453765504446 11.036629017638669 0 1 5.968310365946075 0 0 0
193 1 77.40139872513303 30.854985401634277 11.23964642865427 0 1 5.968310365946075 0 0 0
136 1 14.750727227052327 31.94140550878609 9.021438829244472 0 1 5.968310365946075 0 0 0
140 1 16.0584168396326 34.51241896006246 11.20649214511358 0 1 5.968310365946075 0 0 0
144 1 23.539255235888806 32.09930132396431 8.64268598140397 0 1 5.968310365946075 0 0 0
152 1 32.38340821131368 33.15530871465165 9.396369273002831 0 1 5.968310365946075 0 0 0
160 1 41.95285095667025 31.83843775996985 9.021151550687973 0 1 5.968310365946075 0 0 0
168 1 51.58176925539797 31.78331161271287 9.549590261610758 0 1 5.968310365946075 0 0 0
176 1 59.530537007790834 32.307543527534165 9.148018767064753 0 1 5.968310365946075 0 0 0
184 1 69.00761883636608 31.85335561327449 9.289906937166831 0 1 5.968310365946075 0 0 0
192 1 78.86618243969986 32.243319740145516 9.987530622428007 0 1 5.968310365946075 0 0 0
199 1 9.098178103646132 36.35129295294626 9.053002915522496 0 1 5.968310365946075 0 0 0
207 1 18.21706805641693 37.13644457879462 9.216632221627192 0 1 5.968310365946075 0 0 0
215 1 28.42375550144846 37.27480139919515 9.168981264846805 0 1 5.968310365946075 0 0 0
156 1 35.18405104334471 35.270049087586074 11.463458796004725 0 1 5.968310365946075 0 0 0
223 1 36.737578421980224 37.11889505855759 9.938605881416846 0 1 5.968310365946075 0 0 0
164 1 43.4430121486968 34.8673865048425 11.43262121231812 0 1 5.968310365946075 0 0 0
231 1 46.455336068319674 37.88869900288028 9.566458290095865 0 1 5.968310365946075 0 0 0
172 1 53.51403685579603 35.11169010121756 11.014789111932524 0 1 5.968310365946075 0 0 0
239 1 56.01937300383203 37.89795587335043 8.611926838526768 0 1 5.968310365946075 0 0 0
180 1 63.03191904515007 35.11479776112475 11.06697747383121 0 1 5.968310365946075 0 0 0
247 1 64.81382847874204 36.80082255724238 8.886280540150421 0 1 5.968310365946075 0 0 0
255 1 74.13850650715959 36.848102325964696 8.66866060989649 0 1 5.968310365946075 0 0 0
263 1 83.41498125243433 37.24496583655246 8.633893464911308 0 1 5.968310365946075 0 0 0
203 1 10.931434078567984 40.07749482167917 10.962495634650773 0 1 5.968310365946075 0 0 0
243 1 58.16838135935133 40.20699079970875 11.568319333502311 0 1 5.968310365946075 0 0 0
259 1 77.4537639006438 38.67498341369064 11.347910658813001 0 1 5.968310365946075 0 0 0
202 1 13.712166674827817 41.501706874933504 8.860884411483722 0 1 5.968310365946075 0 0 0
210 1 22.35864178621934 42.20118726818491 9.267841695888263 0 1 5.968310365946075 0 0 0
218 1 32.779083266700525 41.56138019011159 9.967867423761573 0 1 5.968310365946075 0 0 0
226 1 41.8307641729654 41.55358678721079 9.429772122644648 0 1 5.968310365946075 0 0 0
234 1 51.69254422823704 41.83716420156138 9.901757145620833 0 1 5.968310365946075 0 0 0
242 1 61.1842626257469 42.14200948622128 9.53218423956484 0 1 5.968310365946075 0 0 0
250 1 69.79362196597083 41.697185115461295 8.773116314782198 0 1 5.968310365946075 0 0 0
258 1 79.62466538596104 41.95481923287893 9.774144642389599 0 1 5.968310365946075 0 0 0
206 1 15.962959672839332 44.7978601023464 11.369930677865606 0 1 5.968310365946075 0 0 0
222 1 35.00828820475016 43.79621805801711 11.215231013853336 0 1 5.968310365946075 0 0 0
230 1 44.174097098075926 43.51713171074031 11.435777240201597 0 1 5.968310365946075 0 0 0
238 1 53.99449818447399 44.05439299402466 10.870147851363734 0 1 5.968310365946075 0 0 0
3 1 14.713205019400252 9.45455792059205 13.864750048674754 0 1 5.968310365946075 0 0 0
11 1 22.644675137890108 9.71638973060321 14.106122955936204 0 1 5.968310365946075 0 0 0
19 1 32.32230908697596 9.226660113566238 13.469949220733898 0 1 5.968310365946075 0 0 0
27 1 41.695327251909404 9.485163231055777 13.422789579830383 0 1 5.968310365946075 0 0 0
29 1 39.65638843565095 11.167822126637342 12.067476659286294 0 1 5.968310365946075 0 0 0
35 1 51.80478115518943 8.598649317044488 14.152725064064217 0 1 5.968310365946075 0 0 0
43 1 60.00264924545025 9.317234234214295 13.883533766100673 0 1 5.968310365946075 0 0 0
51 1 69.29085387676525 8.580946213172764 14.032690625586472 0 1 5.968310365946075 0 0 0
61 1 76.06324496011881 11.012364398613508 11.680555701435205 0 1 5.968310365946075 0 0 0
59 1 79.52941660216752 8.750420928234332 13.461707543881804 0 1 5.968310365946075 0 0 0
2 1 8.60426121741112 13.442019596165242 13.907146641933085 0 1 5.968310365946075 0 0 0
5 1 12.202635223182748 12.050978706415785 12.306901519934835 0 1 5.968310365946075 0 0 0
10 1 18.767492145657595 13.702217533672442 14.516426240617594 0 1 5.968310365946075 0 0 0
18 1 27.649760432878118 13.569780213095559 13.175158381261529 0 1 5.968310365946075 0 0 0
21 1 29.600530413703954 11.895843555468113 12.123707599368297 0 1 5.968310365946075 0 0 0
26 1 37.2246883597881 14.000052931083903 14.6023787430664 0 1 5.968310365946075 0 0 0
34 1 46.34101531136984 13.451440186517491 13.964980080771003 0 1 5.968310365946075 0 0 0
37 1 48.787578613970965 11.709137169116682 11.801648261325662 0 1 5.968310365946075 0 0 0
42 1 54.84965561954586 14.275741275415019 14.66766941264834 0 1 5.968310365946075 0 0 0
45 1 58.729272048267845 12.376534402683584 12.162205734448131 0 1 5.968310365946075 0 0 0
50 1 65.2119577686334 13.960760039743267 13.391994104238567 0 1 5.968310365946075 0 0 0
53 1 68.11486438281793 11.777555676776055 12.05070353977076 0 1 5.968310365946075 0 0 0
58 1 74.66348353185582 13.586716435386823 14.320414695045233 0 1 5.968310365946075 0 0 0
66 1 84.11959553153551 13.765445236479199 14.487376430593432 0 1 5.968310365946075 0 0 0
32 1 43.82592468344334 16.59434248251867 12.010374982565944 0 1 5.968310365946075 0 0 0
56 1 72.7521834301284 15.967122783229087 12.074920379060197 0 1 5.968310365946075 0 0 0
69 1 14.74663716365325 18.84594580345006 13.27214933128855 0 1 5.968310365946075 0 0 0
77 1 23.69600350785102 19.38032508258797 14.707649296673939 0 1 5.968310365946075 0 0 0
85 1 32.03179171432845 17.92939483748196 13.559115425820043 0 1 5.968310365946075 0 0 0
93 1 41.393689249511496 19.125183245863266 13.851780885775586 0 1 5.968310365946075 0 0 0
101 1 51.19071660451473 18.157029071433296 14.741865846534072 0 1 5.968310365946075 0 0 0
109 1 60.69414045925033 18.657412815295483 13.557344744529562 0 1 5.968310365946075 0 0 0
117 1 69.08750698579513 17.888388630163345 13.120704579171846 0 1 5.968310365946075 0 0 0
125 1 78.85842482802431 18.13423508482398 14.283843916639658 0 1 5.968310365946075 0 0 0
71 1 12.215191159473429 20.170222875169905 11.702993293042121 0 1 5.968310365946075 0 0 0
79 1 20.211897670517907 21.11682629588497 12.117873573661322 0 1 5.968310365946075 0 0 0
87 1 30.70713184445987 21.761238143501735 12.282108423470087 0 1 5.968310365946075 0 0 0
95 1 38.874243632326895 20.384059456856072 12.312185707777681 0 1 5.968310365946075 0 0 0
100 1 46.618343559558106 22.53337195024581 14.515038515305154 0 1 5.968310365946075 0 0 0
119 1 67.38861561431679 21.229935981769152 12.12474185915722 0 1 5.968310365946075 0 0 0
127 1 77.17131343371749 21.184505177939137 12.110967345449788 0 1 5.968310365946075 0 0 0
68 1 9.26124401482012 23.71710317013505 13.918439801496138 0 1 5.968310365946075 0 0 0
76 1 18.982915970476586 24.00846808345816 14.686602543592974 0 1 5.968310365946075 0 0 0
84 1 28.54516747721045 23.75148709588611 14.369765902432594 0 1 5.968310365946075 0 0 0
92 1 37.15943258069665 24.011898589677077 13.350460346294543 0 1 5.968310365946075 0 0 0
106 1 53.62836725232389 25.480564548199382 12.23664097686237 0 1 5.968310365946075 0 0 0
108 1 55.93357651782743 23.850664313790976 13.276503796432568 0 1 5.968310365946075 0 0 0
116 1 65.84166602359562 23.261949679238075 13.48535533507371 0 1 5.968310365946075 0 0 0
122 1 72.8220672749727 25.77743460846729 11.751650056549304 0 1 5.968310365946075 0 0 0
124 1 74.07137408274012 23.418173802831138 14.578162134614534 0 1 5.968310365946075 0 0 0
132 1 83.05291286898168 23.760260516276293 13.986264479281349 0 1 5.968310365946075 0 0 0
135 1 13.929757107166527 28.663198852639432 13.078599199100413 0 1 5.968310365946075 0 0 0
143 1 23.92045244675241 28.48925292901891 13.290808777276883 0 1 5.968310365946075 0 0 0
151 1 33.28234637291126 27.885110293011856 13.353222109290616 0 1 5.968310365946075 0 0 0
159 1 41.0377961698827 28.280246808874615 13.860532163256043 0 1 5.968310365946075 0 0 0
167 1 50.582969358208544 27.794559829884186 13.337250180799717 0 1 5.968310365946075 0 0 0
175 1 59.69590676834276 27.674004337894992 13.416521983432947 0 1 5.968310365946075 0 0 0
183 1 69.50817585300217 27.20016656993915 13.765575180978804 0 1 5.968310365946075 0 0 0
191 1 78.5118533951389 27.423458037921428 13.269734970754829 0 1 5.968310365946075 0 0 0
137 1 10.830901843675614 29.98511008314745 11.750078166819813 0 1 5.968310365946075 0 0 0
153 1 29.446690452311888 29.436678857913936 12.424199906050129 0 1 5.968310365946075 0 0 0
177 1 58.22844538528206 29.901100156310125 12.086572187556024 0 1 5.968310365946075 0 0 0
185 1 66.58918050775912 30.306977308286722 12.227148254787304 0 1 5.968310365946075 0 0 0
134 1 9.404984019518976 32.985506435036825 14.321390169768453 0 1 5.968310365946075 0 0 0
142 1 18.68448312555554 32.03455625208272 13.90003166266067 0 1 5.968310365946075 0 0 0
148 1 24.94649875145707 34.6901705345885 12.341958276099499 0 1 5.968310365946075 0 0 0
150 1 28.54549771846701 33.367204131420124 13.328944736200985 0 1 5.968310365946075 0 0 0
158 1 36.96609226094261 32.7901069382761 13.99333021740927 0 1 5.968310365946075 0 0 0
166 1 46.14404956419086 33.19416640327398 13.151715574987552 0 1 5.968310365946075 0 0 0
174 1 55.85566810672721 31.662006828949472 13.8520276800939 0 1 5.968310365946075 0 0 0
182 1 64.4214236010838 32.34141760725316 14.368328235469338 0 1 5.968310365946075 0 0 0
188 1 72.06235754624673 34.63728231136537 12.219138389571762 0 1 5.968310365946075 0 0 0
190 1 74.97938682116101 33.27222684245322 13.700134730142796 0 1 5.968310365946075 0 0 0
196 1 80.64770273011831 34.098345137365925 12.446473081176615 0 1 5.968310365946075 0 0 0
198 1 82.97543102794961 31.78386262652532 14.755693130918221 0 1 5.968310365946075 0 0 0
201 1 14.144130039283429 37.13435888895156 13.589534768864528 0 1 5.968310365946075 0 0 0
209 1 23.541345094308458 37.07963848225682 13.980154291103705 0 1 5.968310365946075 0 0 0
217 1 32.97319993077673 36.55858384637434 13.864730954970359 0 1 5.968310365946075 0 0 0
225 1 42.409010246922136 36.4248317763326 14.776315796449044 0 1 5.968310365946075 0 0 0
233 1 50.97431895946718 36.5522766786085 13.95593674304789 0 1 5.968310365946075 0 0 0
241 1 60.34784386962418 36.63127772715591 14.659704976337881 0 1 5.968310365946075 0 0 0
249 1 69.56328310545234 37.376607738909165 13.423084428686824 0 1 5.968310365946075 0 0 0
257 1 79.15869753854267 37.74713088707238 14.200980144706651 0 1 5.968310365946075 0 0 0
211 1 20.461865363817786 38.80170026829994 12.205431664838764 0 1 5.968310365946075 0 0 0
219 1 29.986158533362985 38.71909917540101 11.87034882363134 0 1 5.968310365946075 0 0 0
227 1 39.287660579935775 38.845258938570666 12.061209779648843 0 1 5.968310365946075 0 0 0
235 1 48.178786952266165 39.752286046214564 11.72006061508666 0 1 5.968310365946075 0 0 0
251 1 66.48831029211226 40.0576053115514 12.35957877857883 0 1 5.968310365946075 0 0 0
200 1 9.228543198543077 42.29175271736942 14.177269155978653 0 1 5.968310365946075 0 0 0
208 1 18.579333240134556 41.16705274510359 13.785997892767174 0 1 5.968310365946075 0 0 0
216 1 28.30635300430226 41.07051873835978 14.082559375515988 0 1 5.968310365946075 0 0 0
224 1 36.687060792434 41.47690544042739 14.090772452667697 0 1 5.968310365946075 0 0 0
232 1 46.66468592274945 42.519883216394234 13.26510048471545 0 1 5.968310365946075 0 0 0
240 1 56.511676938339306 41.22112250817047 14.634935787682199 0 1 5.968310365946075 0 0 0
248 1 64.32949006900787 40.973956749732494 13.908832658947976 0 1 5.968310365946075 0 0 0
256 1 74.90933421317992 40.931155849486274 14.613970362908166 0 1 5.968310365946075 0 0 0
264 1 84.20654174283285 41.928920134191046 13.948347192815167 0 1 5.968310365946075 0 0 0
599 1 14.027677992966378 45.89241608817921 14.710668288841308 0 1 5.968310365946075 0 0 0
607 1 22.514351074450122 46.33707789748123 14.565864079208758 0 1 5.968310365946075 0 0 0
214 1 25.12205756090249 44.77978742192753 11.995527772260298 0 1 5.968310365946075 0 0 0
631 1 51.301739622493784 45.72830052401847 13.171324200999354 0 1 5.968310365946075 0 0 0
639 1 61.211434318909035 46.02890509281102 14.577587617913654 0 1 5.968310365946075 0 0 0
246 1 63.14636228439088 44.20730070505093 11.880810411405188 0 1 5.968310365946075 0 0 0
254 1 71.1682855589571 44.58894066877114 11.65732094571579 0 1 5.968310365946075 0 0 0
655 1 78.29485176638386 46.10320097674495 14.469028146723392 0 1 5.968310365946075 0 0 0
262 1 81.82019493975176 43.471855935788916 12.28829500502824 0 1 5.968310365946075 0 0 0
15 1 25.8039764708641 11.477255553518953 16.924294519411347 0 1 5.968310365946075 0 0 0
39 1 53.328735239611454 10.841803669517683 16.033240136421483 0 1 5.968310365946075 0 0 0
47 1 62.1481356228826 11.567733084852685 15.714500664319901 0 1 5.968310365946075 0 0 0
55 1 72.4466770607704 11.019914247803777 16.245380961861116 0 1 5.968310365946075 0 0 0
63 1 81.5569526854459 11.383876984197608 16.336767126452372 0 1 5.968310365946075 0 0 0
7 1 16.895841033088715 11.679253776289736 16.843541738771222 0 1 5.968310365946075 0 0 0
23 1 34.53393755354733 11.730498171594641 15.427672004781783 0 1 5.968310365946075 0 0 0
31 1 44.874950458844786 11.897862288826369 15.90864781187517 0 1 5.968310365946075 0 0 0
6 1 11.067996484840117 16.230855804961635 15.865322606261312 0 1 5.968310365946075 0 0 0
14 1 20.255926135658306 15.530483709650785 16.125003079798688 0 1 5.968310365946075 0 0 0
22 1 29.90318359284453 15.849912910132929 15.629520071274168 0 1 5.968310365946075 0 0 0
30 1 39.75451596095631 16.205989528812353 17.103103425759485 0 1 5.968310365946075 0 0 0
38 1 48.71909290868635 16.711554420984925 16.034389047432256 0 1 5.968310365946075 0 0 0
46 1 57.203851212221835 16.18425588281835 17.073475571811485 0 1 5.968310365946075 0 0 0
54 1 67.6073228938036 15.574146196135501 15.986346291170122 0 1 5.968310365946075 0 0 0
62 1 75.81573814223349 16.152767505579362 16.587932125651122 0 1 5.968310365946075 0 0 0
73 1 16.57120149348256 20.851496501482778 16.86281510780529 0 1 5.968310365946075 0 0 0
81 1 24.999013354434354 21.565889694973315 15.714326166167297 0 1 5.968310365946075 0 0 0
89 1 34.46566721802918 21.515671879822627 16.991178667764444 0 1 5.968310365946075 0 0 0
97 1 44.74826106067261 20.784972825848023 15.413976947604596 0 1 5.968310365946075 0 0 0
105 1 53.508711709250086 20.390209268538193 15.957154986863003 0 1 5.968310365946075 0 0 0
113 1 63.36351478552718 21.68240335627015 15.535733982814264 0 1 5.968310365946075 0 0 0
121 1 71.43450518201449 20.57950739113746 16.35665120643492 0 1 5.968310365946075 0 0 0
129 1 81.64575735324306 20.90912357774922 16.624887478384636 0 1 5.968310365946075 0 0 0
72 1 12.397086971752438 26.02847807377198 16.199505017040366 0 1 5.968310365946075 0 0 0
80 1 20.302391887168717 25.002838576730813 16.374115322835618 0 1 5.968310365946075 0 0 0
88 1 29.864520531114582 25.811878454109618 16.1123619868263 0 1 5.968310365946075 0 0 0
96 1 39.0587241232992 26.201134750105794 16.92949432550816 0 1 5.968310365946075 0 0 0
104 1 49.47804046202285 25.783095818279335 15.881062104290294 0 1 5.968310365946075 0 0 0
112 1 58.519985341547354 25.633760783452388 15.781019049560967 0 1 5.968310365946075 0 0 0
120 1 67.91646762708285 25.438306216787467 16.2666720072323 0 1 5.968310365946075 0 0 0
128 1 76.51060757000879 24.874508482777415 16.088587445024388 0 1 5.968310365946075 0 0 0
139 1 15.430352894958304 29.66034560881207 15.920228619299309 0 1 5.968310365946075 0 0 0
147 1 26.392930739329714 30.38373513344931 16.395424195165702 0 1 5.968310365946075 0 0 0
155 1 34.62293117277676 30.236073418771472 16.590470687189878 0 1 5.968310365946075 0 0 0
163 1 44.30343106028253 30.95373914774905 16.525959619590907 0 1 5.968310365946075 0 0 0
171 1 52.88822238497337 29.802468248691074 16.550804946631075 0 1 5.968310365946075 0 0 0
179 1 62.70480479444121 30.5124037123519 17.009351921244303 0 1 5.968310365946075 0 0 0
187 1 71.74564415508927 30.91463341682891 16.721904416156946 0 1 5.968310365946075 0 0 0
195 1 81.33195651797095 29.623591567224086 15.637692286783146 0 1 5.968310365946075 0 0 0
170 1 48.128754435825186 34.28403459690793 15.972107358816748 0 1 5.968310365946075 0 0 0
178 1 58.64580152177713 34.55102612410593 15.969094334694443 0 1 5.968310365946075 0 0 0
138 1 11.641335453852244 35.32152870992883 16.90336469424946 0 1 5.968310365946075 0 0 0
146 1 20.266576331938744 35.68863424239049 15.898202629582126 0 1 5.968310365946075 0 0 0
154 1 29.39645481586121 35.05559715226519 15.589262360455763 0 1 5.968310365946075 0 0 0
162 1 40.1815418071066 35.546917408922184 16.87018474479484 0 1 5.968310365946075 0 0 0
186 1 67.96346307639271 34.94313682001854 16.06042745175384 0 1 5.968310365946075 0 0 0
194 1 77.3353549017712 35.4032756270754 16.796518330137616 0 1 5.968310365946075 0 0 0
205 1 16.941421343636847 40.31604553117624 15.896883841659053 0 1 5.968310365946075 0 0 0
213 1 24.81987553589984 40.04802748608533 16.039962238230004 0 1 5.968310365946075 0 0 0
221 1 34.066350246717946 38.884806176588356 16.970163377456487 0 1 5.968310365946075 0 0 0
229 1 43.547022768191745 39.64404135087413 16.374751216281396 0 1 5.968310365946075 0 0 0
237 1 53.407913759707434 38.89931644442008 15.606454298995203 0 1 5.968310365946075 0 0 0
245 1 62.6616096179389 39.09194404433542 16.307673296884644 0 1 5.968310365946075 0 0 0
253 1 72.15620867826816 39.11237958772624 15.391389105074865 0 1 5.968310365946075 0 0 0
261 1 81.43824733340907 39.10103865952969 16.104662870814906 0 1 5.968310365946075 0 0 0
204 1 11.526114881924324 43.90567599193381 17.10259071339803 0 1 5.968310365946075 0 0 0
212 1 20.836781670955574 44.91022532305542 15.59206604562623 0 1 5.968310365946075 0 0 0
220 1 29.925042509476842 44.09522627140624 16.52225964593012 0 1 5.968310365946075 0 0 0
228 1 39.17122870921325 43.300821035768344 15.628689501350268 0 1 5.968310365946075 0 0 0
236 1 48.98195877287313 44.789056559562745 15.888755667737788 0 1 5.968310365946075 0 0 0
244 1 57.462315338057024 43.33129667911059 16.485964500374422 0 1 5.968310365946075 0 0 0
252 1 67.23223320507248 44.16330781039043 16.325712550353416 0 1 5.968310365946075 0 0 0
260 1 77.13279739180608 44.0636433267911 16.18660252694181 0 1 5.968310365946075 0 0 0
265 1 8.598986171944018 8.845767662475607 18.723544715251673 0 1 5.968310365946075 0 0 0
273 1 18.241132484023094 8.486659133517788 18.47089565659982 0 1 5.968310365946075 0 0 0
281 1 28.70198555146994 8.727128978887306 17.972387307688077 0 1 5.968310365946075 0 0 0
289 1 37.79110682747267 10.101343450170914 18.56171851871974 0 1 5.968310365946075 0 0 0
297 1 45.919015973495824 9.030602155164742 18.89163686824841 0 1 5.968310365946075 0 0 0
305 1 55.309642102227386 9.549402206705777 19.378315668441783 0 1 5.968310365946075 0 0 0
313 1 64.79021705055163 8.668720146982862 18.985548599439962 0 1 5.968310365946075 0 0 0
321 1 74.98806404081493 9.803211753330016 18.71368709102367 0 1 5.968310365946075 0 0 0
329 1 83.85587339585058 10.158004706746466 17.744734590033286 0 1 5.968310365946075 0 0 0
268 1 13.24522314760583 13.341303033075722 18.12007590503978 0 1 5.968310365946075 0 0 0
276 1 22.486193476318267 13.586783503515651 18.349941878584243 0 1 5.968310365946075 0 0 0
284 1 31.85453610846546 13.109628151592045 18.5749892898701 0 1 5.968310365946075 0 0 0
292 1 41.96842919936607 14.20435114498557 17.815839159732118 0 1 5.968310365946075 0 0 0
300 1 50.71362528375394 13.099558509298934 18.066364508997847 0 1 5.968310365946075 0 0 0
308 1 59.87450325314388 13.43163446332267 17.93331219067934 0 1 5.968310365946075 0 0 0
316 1 68.80747064607806 13.15429950663398 18.021808169224553 0 1 5.968310365946075 0 0 0
324 1 78.51684098308155 13.839880194587526 17.8792761295426 0 1 5.968310365946075 0 0 0
331 1 10.122359865268022 19.341985858881085 18.51367221080974 0 1 5.968310365946075 0 0 0
339 1 17.97813913159413 18.877719973056596 17.984769352410947 0 1 5.968310365946075 0 0 0
347 1 27.330047353755965 19.153529963192252 18.355284281371066 0 1 5.968310365946075 0 0 0
355 1 36.79705825210811 18.146895563178557 17.779260887232308 0 1 5.968310365946075 0 0 0
363 1 45.667329625288666 18.138228254352352 18.206904406228798 0 1 5.968310365946075 0 0 0
371 1 56.28637956433796 17.841982290947524 18.745445586412725 0 1 5.968310365946075 0 0 0
379 1 64.13411624344565 17.86940519702679 18.734341891382623 0 1 5.968310365946075 0 0 0
387 1 73.99013582892722 18.73616297475561 18.164557162650365 0 1 5.968310365946075 0 0 0
395 1 83.62694659975304 19.144916069593844 17.94140514809467 0 1 5.968310365946075 0 0 0
334 1 13.909083128015684 22.669775841094935 19.332314705403032 0 1 5.968310365946075 0 0 0
342 1 22.472736372442586 22.80217150139659 18.234122730001413 0 1 5.968310365946075 0 0 0
350 1 32.65259694341859 22.53349201988893 19.43536225012249 0 1 5.968310365946075 0 0 0
358 1 42.1211196580429 22.586100321781505 18.33209425387278 0 1 5.968310365946075 0 0 0
374 1 59.554413574421055 22.567089580691135 18.872759579521116 0 1 5.968310365946075 0 0 0
382 1 70.23623130928047 23.186712013895733 18.060457695648292 0 1 5.968310365946075 0 0 0
366 1 51.02664513868378 23.654511545361032 18.777447552163206 0 1 5.968310365946075 0 0 0
390 1 78.18790262031129 23.811351327680047 18.109250523026756 0 1 5.968310365946075 0 0 0
397 1 10.100856518165086 27.248342096262895 19.330337697867574 0 1 5.968310365946075 0 0 0
405 1 19.361275456000694 27.382886836411963 17.82695731892542 0 1 5.968310365946075 0 0 0
413 1 27.856558723547614 28.081884377327476 18.814990441798297 0 1 5.968310365946075 0 0 0
421 1 37.283572978569104 27.9511044352517 19.240158067171333 0 1 5.968310365946075 0 0 0
429 1 46.372088716552106 27.844417367360514 19.34317485622611 0 1 5.968310365946075 0 0 0
437 1 55.93144365327579 27.43069653945293 17.81956646797195 0 1 5.968310365946075 0 0 0
445 1 64.79499776752948 27.57794303444991 19.342296916194325 0 1 5.968310365946075 0 0 0
453 1 73.51905123821312 27.68061581370626 17.86358147401185 0 1 5.968310365946075 0 0 0
461 1 82.94403860684255 28.269463999740147 18.160053663032695 0 1 5.968310365946075 0 0 0
400 1 14.362328211080897 33.35765301383441 19.19747943303346 0 1 5.968310365946075 0 0 0
408 1 22.629963760529353 32.6472704709999 18.181970901545665 0 1 5.968310365946075 0 0 0
416 1 31.961092035328363 33.268788590458996 17.95110174699627 0 1 5.968310365946075 0 0 0
424 1 42.25992271846614 32.364486340665565 18.867783437728715 0 1 5.968310365946075 0 0 0
432 1 51.07614583244518 31.86829889078234 19.269140835001476 0 1 5.968310365946075 0 0 0
440 1 59.514550979289886 33.2179982123335 18.301260175471125 0 1 5.968310365946075 0 0 0
448 1 69.57970656395662 32.219363534804245 18.252396884813006 0 1 5.968310365946075 0 0 0
456 1 79.60223011276625 33.024682589623865 18.211367937639945 0 1 5.968310365946075 0 0 0
463 1 8.576572452530213 37.41060339888514 18.9475155674273 0 1 5.968310365946075 0 0 0
471 1 19.199780700832004 37.43205618403345 17.735265376531085 0 1 5.968310365946075 0 0 0
479 1 28.33714198686574 37.33467108813493 19.381048823655046 0 1 5.968310365946075 0 0 0
487 1 37.297956536380575 37.21950666578089 17.8864506026471 0 1 5.968310365946075 0 0 0
495 1 46.69261113191673 37.61302565419833 19.0363753323069 0 1 5.968310365946075 0 0 0
503 1 54.96492799359193 37.31407765646389 19.382976028006706 0 1 5.968310365946075 0 0 0
511 1 64.8958702270703 36.43137618401504 18.09616189471225 0 1 5.968310365946075 0 0 0
519 1 74.62284344109649 37.291755522988915 18.15901085292776 0 1 5.968310365946075 0 0 0
527 1 83.57215920451026 36.97602514283738 18.206664791145467 0 1 5.968310365946075 0 0 0
466 1 14.62371095257635 42.29181044719034 18.049847572912338 0 1 5.968310365946075 0 0 0
474 1 22.699846130109297 42.43278085196202 18.44683644011408 0 1 5.968310365946075 0 0 0
482 1 31.70155347153235 42.5891302820758 18.167119640169428 0 1 5.968310365946075 0 0 0
490 1 41.82652065862548 41.54311788679756 18.42891802331931 0 1 5.968310365946075 0 0 0
498 1 51.68688307455787 42.35028022980593 18.061086661150195 0 1 5.968310365946075 0 0 0