LAMMPS (10 Dec 2025 - Development - patch_10Sep2025-1417-g836e542f7a)
OMP_NUM_THREADS environment is not set. Defaulting to 1 thread.
  using 1 OpenMP thread(s) per MPI task
###
# Box and units  (use LJ units and periodic boundaries)
###

units           lj
atom_style      hybrid bond ellipsoid
WARNING: Atom style hybrid defines both, per-type and per-atom masses; both must be set, but only per-atom masses will be used (src/atom_vec_hybrid.cpp:132)
dimension	    3
boundary	    p p p
newton 		    on

lattice		    diamond 0.01
Lattice spacing in x,y,z = 9.2831777 9.2831777 9.2831777
region		    box block 0 10 0 10 0 10
create_box	    2 box bond/types 1 extra/bond/per/atom 2
Created orthogonal box = (0 0 0) to (92.831777 92.831777 92.831777)
  2 by 2 by 2 MPI processor grid
#create_box      2 box

###################################################################
# Create Atoms in empty space
#
region         lower block 1 9 1 9 1 3
create_atoms   1 region lower
Created 1235 atoms
  using lattice units in orthogonal box = (0 0 0) to (92.831777 92.831777 92.831777)
  create_atoms CPU = 0.001 seconds
region         upper block 1 9 1 9 7 9
create_atoms   1 region upper
Created 1235 atoms
  using lattice units in orthogonal box = (0 0 0) to (92.831777 92.831777 92.831777)
  create_atoms CPU = 0.000 seconds

###################################################################
# Create Polymers
#
variable N        equal 30   # Number of beads per polymer
variable Ny_val   equal 4    # Number of polymers placed in y
variable Ny       loop ${Ny_val}
variable Ny       loop 4
variable Nz       loop 3     # Number of polymers placed in z
variable dbead    equal 0.2  # Distance Between Beads
variable step     equal 1    # Step size for loop

# Initialise the first bead
variable x0 equal 1.0
variable y0 equal 1.0
variable z0 equal 2.0

# Create the remaining beads
label loop_z
label loop_y
label loop_bead
if "${step} > ${N}" then "jump SELF end_inner"
    variable x equal ${x0} + ${dbead}
    variable x equal 1 + ${dbead}
    variable x equal 1 + 0.2
    variable y equal ${y0} + 1.5*${Ny}
    variable y equal 1 + 1.5*${Ny}
    variable y equal 1 + 1.5*1
    variable z equal ${z0} + 1.5*${Nz}
    variable z equal 2 + 1.5*${Nz}
    variable z equal 2 + 1.5*1
    create_atoms 2 single ${x} ${y} ${z}
    create_atoms 2 single 1.2 ${y} ${z}
    create_atoms 2 single 1.2 2.5 ${z}
    create_atoms 2 single 1.2 2.5 3.5
Created 1 atoms
  using lattice units in orthogonal box = (0 0 0) to (92.831777 92.831777 92.831777)
  create_atoms CPU = 0.000 seconds
    variable x0 equal ${x}
    variable x0 equal 1.2
    variable step equal ${step} + 1
    variable step equal 1 + 1
jump SELF loop_bead
if "${step} > ${N}" then "jump SELF end_inner"
    variable x equal ${x0} + ${dbead}
    variable x equal 1.2 + ${dbead}
    variable x equal 1.2 + 0.2
    variable y equal ${y0} + 1.5*${Ny}
    variable y equal 1 + 1.5*${Ny}
    variable y equal 1 + 1.5*1
    variable z equal ${z0} + 1.5*${Nz}
    variable z equal 2 + 1.5*${Nz}
    variable z equal 2 + 1.5*1
    create_atoms 2 single ${x} ${y} ${z}
    create_atoms 2 single 1.4 ${y} ${z}
    create_atoms 2 single 1.4 2.5 ${z}
    create_atoms 2 single 1.4 2.5 3.5
Created 1 atoms
  using lattice units in orthogonal box = (0 0 0) to (92.831777 92.831777 92.831777)
  create_atoms CPU = 0.000 seconds
    variable x0 equal ${x}
    variable x0 equal 1.4
    variable step equal ${step} + 1
    variable step equal 2 + 1
jump SELF loop_bead
if "${step} > ${N}" then "jump SELF end_inner"
    variable x equal ${x0} + ${dbead}
    variable x equal 1.4 + ${dbead}
    variable x equal 1.4 + 0.2
    variable y equal ${y0} + 1.5*${Ny}
    variable y equal 1 + 1.5*${Ny}
    variable y equal 1 + 1.5*1
    variable z equal ${z0} + 1.5*${Nz}
    variable z equal 2 + 1.5*${Nz}
    variable z equal 2 + 1.5*1
    create_atoms 2 single ${x} ${y} ${z}
    create_atoms 2 single 1.6 ${y} ${z}
    create_atoms 2 single 1.6 2.5 ${z}
    create_atoms 2 single 1.6 2.5 3.5
Created 1 atoms
  using lattice units in orthogonal box = (0 0 0) to (92.831777 92.831777 92.831777)
  create_atoms CPU = 0.000 seconds
    variable x0 equal ${x}
    variable x0 equal 1.6
    variable step equal ${step} + 1
    variable step equal 3 + 1
jump SELF loop_bead
if "${step} > ${N}" then "jump SELF end_inner"
    variable x equal ${x0} + ${dbead}
    variable x equal 1.6 + ${dbead}
    variable x equal 1.6 + 0.2
    variable y equal ${y0} + 1.5*${Ny}
    variable y equal 1 + 1.5*${Ny}
    variable y equal 1 + 1.5*1
    variable z equal ${z0} + 1.5*${Nz}
    variable z equal 2 + 1.5*${Nz}
    variable z equal 2 + 1.5*1
    create_atoms 2 single ${x} ${y} ${z}
    create_atoms 2 single 1.8 ${y} ${z}
    create_atoms 2 single 1.8 2.5 ${z}
    create_atoms 2 single 1.8 2.5 3.5
Created 1 atoms
  using lattice units in orthogonal box = (0 0 0) to (92.831777 92.831777 92.831777)
  create_atoms CPU = 0.000 seconds
    variable x0 equal ${x}
    variable x0 equal 1.8
    variable step equal ${step} + 1
    variable step equal 4 + 1
jump SELF loop_bead
if "${step} > ${N}" then "jump SELF end_inner"
    variable x equal ${x0} + ${dbead}
    variable x equal 1.8 + ${dbead}
    variable x equal 1.8 + 0.2
    variable y equal ${y0} + 1.5*${Ny}
    variable y equal 1 + 1.5*${Ny}
    variable y equal 1 + 1.5*1
    variable z equal ${z0} + 1.5*${Nz}
    variable z equal 2 + 1.5*${Nz}
    variable z equal 2 + 1.5*1
    create_atoms 2 single ${x} ${y} ${z}
    create_atoms 2 single 2 ${y} ${z}
    create_atoms 2 single 2 2.5 ${z}
    create_atoms 2 single 2 2.5 3.5
Created 1 atoms
  using lattice units in orthogonal box = (0 0 0) to (92.831777 92.831777 92.831777)
  create_atoms CPU = 0.000 seconds
    variable x0 equal ${x}
    variable x0 equal 2
    variable step equal ${step} + 1
    variable step equal 5 + 1
jump SELF loop_bead
if "${step} > ${N}" then "jump SELF end_inner"
    variable x equal ${x0} + ${dbead}
    variable x equal 2 + ${dbead}
    variable x equal 2 + 0.2
    variable y equal ${y0} + 1.5*${Ny}
    variable y equal 1 + 1.5*${Ny}
    variable y equal 1 + 1.5*1
    variable z equal ${z0} + 1.5*${Nz}
    variable z equal 2 + 1.5*${Nz}
    variable z equal 2 + 1.5*1
    create_atoms 2 single ${x} ${y} ${z}
    create_atoms 2 single 2.2 ${y} ${z}
    create_atoms 2 single 2.2 2.5 ${z}
    create_atoms 2 single 2.2 2.5 3.5
Created 1 atoms
  using lattice units in orthogonal box = (0 0 0) to (92.831777 92.831777 92.831777)
  create_atoms CPU = 0.000 seconds
    variable x0 equal ${x}
    variable x0 equal 2.2
    variable step equal ${step} + 1
    variable step equal 6 + 1
jump SELF loop_bead
if "${step} > ${N}" then "jump SELF end_inner"
    variable x equal ${x0} + ${dbead}
    variable x equal 2.2 + ${dbead}
    variable x equal 2.2 + 0.2
    variable y equal ${y0} + 1.5*${Ny}
    variable y equal 1 + 1.5*${Ny}
    variable y equal 1 + 1.5*1
    variable z equal ${z0} + 1.5*${Nz}
    variable z equal 2 + 1.5*${Nz}
    variable z equal 2 + 1.5*1
    create_atoms 2 single ${x} ${y} ${z}
    create_atoms 2 single 2.4 ${y} ${z}
    create_atoms 2 single 2.4 2.5 ${z}
    create_atoms 2 single 2.4 2.5 3.5
Created 1 atoms
  using lattice units in orthogonal box = (0 0 0) to (92.831777 92.831777 92.831777)
  create_atoms CPU = 0.000 seconds
    variable x0 equal ${x}
    variable x0 equal 2.4
    variable step equal ${step} + 1
    variable step equal 7 + 1
jump SELF loop_bead
if "${step} > ${N}" then "jump SELF end_inner"
    variable x equal ${x0} + ${dbead}
    variable x equal 2.4 + ${dbead}
    variable x equal 2.4 + 0.2
    variable y equal ${y0} + 1.5*${Ny}
    variable y equal 1 + 1.5*${Ny}
    variable y equal 1 + 1.5*1
    variable z equal ${z0} + 1.5*${Nz}
    variable z equal 2 + 1.5*${Nz}
    variable z equal 2 + 1.5*1
    create_atoms 2 single ${x} ${y} ${z}
    create_atoms 2 single 2.6 ${y} ${z}
    create_atoms 2 single 2.6 2.5 ${z}
    create_atoms 2 single 2.6 2.5 3.5
Created 1 atoms
  using lattice units in orthogonal box = (0 0 0) to (92.831777 92.831777 92.831777)
  create_atoms CPU = 0.000 seconds
    variable x0 equal ${x}
    variable x0 equal 2.6
    variable step equal ${step} + 1
    variable step equal 8 + 1
jump SELF loop_bead
if "${step} > ${N}" then "jump SELF end_inner"
    variable x equal ${x0} + ${dbead}
    variable x equal 2.6 + ${dbead}
    variable x equal 2.6 + 0.2
    variable y equal ${y0} + 1.5*${Ny}
    variable y equal 1 + 1.5*${Ny}
    variable y equal 1 + 1.5*1
    variable z equal ${z0} + 1.5*${Nz}
    variable z equal 2 + 1.5*${Nz}
    variable z equal 2 + 1.5*1
    create_atoms 2 single ${x} ${y} ${z}
    create_atoms 2 single 2.8 ${y} ${z}
    create_atoms 2 single 2.8 2.5 ${z}
    create_atoms 2 single 2.8 2.5 3.5
Created 1 atoms
  using lattice units in orthogonal box = (0 0 0) to (92.831777 92.831777 92.831777)
  create_atoms CPU = 0.000 seconds
    variable x0 equal ${x}
    variable x0 equal 2.8
    variable step equal ${step} + 1
    variable step equal 9 + 1
jump SELF loop_bead
if "${step} > ${N}" then "jump SELF end_inner"
    variable x equal ${x0} + ${dbead}
    variable x equal 2.8 + ${dbead}
    variable x equal 2.8 + 0.2
    variable y equal ${y0} + 1.5*${Ny}
    variable y equal 1 + 1.5*${Ny}
    variable y equal 1 + 1.5*1
    variable z equal ${z0} + 1.5*${Nz}
    variable z equal 2 + 1.5*${Nz}
    variable z equal 2 + 1.5*1
    create_atoms 2 single ${x} ${y} ${z}
    create_atoms 2 single 3 ${y} ${z}
    create_atoms 2 single 3 2.5 ${z}
    create_atoms 2 single 3 2.5 3.5
Created 1 atoms
  using lattice units in orthogonal box = (0 0 0) to (92.831777 92.831777 92.831777)
  create_atoms CPU = 0.000 seconds
    variable x0 equal ${x}
    variable x0 equal 3
    variable step equal ${step} + 1
    variable step equal 10 + 1
jump SELF loop_bead
if "${step} > ${N}" then "jump SELF end_inner"
    variable x equal ${x0} + ${dbead}
    variable x equal 3 + ${dbead}
    variable x equal 3 + 0.2
    variable y equal ${y0} + 1.5*${Ny}
    variable y equal 1 + 1.5*${Ny}
    variable y equal 1 + 1.5*1
    variable z equal ${z0} + 1.5*${Nz}
    variable z equal 2 + 1.5*${Nz}
    variable z equal 2 + 1.5*1
    create_atoms 2 single ${x} ${y} ${z}
    create_atoms 2 single 3.2 ${y} ${z}
    create_atoms 2 single 3.2 2.5 ${z}
    create_atoms 2 single 3.2 2.5 3.5
Created 1 atoms
  using lattice units in orthogonal box = (0 0 0) to (92.831777 92.831777 92.831777)
  create_atoms CPU = 0.000 seconds
    variable x0 equal ${x}
    variable x0 equal 3.2
    variable step equal ${step} + 1
    variable step equal 11 + 1
jump SELF loop_bead
if "${step} > ${N}" then "jump SELF end_inner"
    variable x equal ${x0} + ${dbead}
    variable x equal 3.2 + ${dbead}
    variable x equal 3.2 + 0.2
    variable y equal ${y0} + 1.5*${Ny}
    variable y equal 1 + 1.5*${Ny}
    variable y equal 1 + 1.5*1
    variable z equal ${z0} + 1.5*${Nz}
    variable z equal 2 + 1.5*${Nz}
    variable z equal 2 + 1.5*1
    create_atoms 2 single ${x} ${y} ${z}
    create_atoms 2 single 3.4 ${y} ${z}
    create_atoms 2 single 3.4 2.5 ${z}
    create_atoms 2 single 3.4 2.5 3.5
Created 1 atoms
  using lattice units in orthogonal box = (0 0 0) to (92.831777 92.831777 92.831777)
  create_atoms CPU = 0.000 seconds
    variable x0 equal ${x}
    variable x0 equal 3.4
    variable step equal ${step} + 1
    variable step equal 12 + 1
jump SELF loop_bead
if "${step} > ${N}" then "jump SELF end_inner"
    variable x equal ${x0} + ${dbead}
    variable x equal 3.4 + ${dbead}
    variable x equal 3.4 + 0.2
    variable y equal ${y0} + 1.5*${Ny}
    variable y equal 1 + 1.5*${Ny}
    variable y equal 1 + 1.5*1
    variable z equal ${z0} + 1.5*${Nz}
    variable z equal 2 + 1.5*${Nz}
    variable z equal 2 + 1.5*1
    create_atoms 2 single ${x} ${y} ${z}
    create_atoms 2 single 3.6 ${y} ${z}
    create_atoms 2 single 3.6 2.5 ${z}
    create_atoms 2 single 3.6 2.5 3.5
Created 1 atoms
  using lattice units in orthogonal box = (0 0 0) to (92.831777 92.831777 92.831777)
  create_atoms CPU = 0.000 seconds
    variable x0 equal ${x}
    variable x0 equal 3.6
    variable step equal ${step} + 1
    variable step equal 13 + 1
jump SELF loop_bead
if "${step} > ${N}" then "jump SELF end_inner"
    variable x equal ${x0} + ${dbead}
    variable x equal 3.6 + ${dbead}
    variable x equal 3.6 + 0.2
    variable y equal ${y0} + 1.5*${Ny}
    variable y equal 1 + 1.5*${Ny}
    variable y equal 1 + 1.5*1
    variable z equal ${z0} + 1.5*${Nz}
    variable z equal 2 + 1.5*${Nz}
    variable z equal 2 + 1.5*1
    create_atoms 2 single ${x} ${y} ${z}
    create_atoms 2 single 3.8 ${y} ${z}
    create_atoms 2 single 3.8 2.5 ${z}
    create_atoms 2 single 3.8 2.5 3.5
Created 1 atoms
  using lattice units in orthogonal box = (0 0 0) to (92.831777 92.831777 92.831777)
  create_atoms CPU = 0.000 seconds
    variable x0 equal ${x}
    variable x0 equal 3.8
    variable step equal ${step} + 1
    variable step equal 14 + 1
jump SELF loop_bead
if "${step} > ${N}" then "jump SELF end_inner"
    variable x equal ${x0} + ${dbead}
    variable x equal 3.8 + ${dbead}
    variable x equal 3.8 + 0.2
    variable y equal ${y0} + 1.5*${Ny}
    variable y equal 1 + 1.5*${Ny}
    variable y equal 1 + 1.5*1
    variable z equal ${z0} + 1.5*${Nz}
    variable z equal 2 + 1.5*${Nz}
    variable z equal 2 + 1.5*1
    create_atoms 2 single ${x} ${y} ${z}
    create_atoms 2 single 4 ${y} ${z}
    create_atoms 2 single 4 2.5 ${z}
    create_atoms 2 single 4 2.5 3.5
Created 1 atoms
  using lattice units in orthogonal box = (0 0 0) to (92.831777 92.831777 92.831777)
  create_atoms CPU = 0.000 seconds
    variable x0 equal ${x}
    variable x0 equal 4
    variable step equal ${step} + 1
    variable step equal 15 + 1
jump SELF loop_bead
if "${step} > ${N}" then "jump SELF end_inner"
    variable x equal ${x0} + ${dbead}
    variable x equal 4 + ${dbead}
    variable x equal 4 + 0.2
    variable y equal ${y0} + 1.5*${Ny}
    variable y equal 1 + 1.5*${Ny}
    variable y equal 1 + 1.5*1
    variable z equal ${z0} + 1.5*${Nz}
    variable z equal 2 + 1.5*${Nz}
    variable z equal 2 + 1.5*1
    create_atoms 2 single ${x} ${y} ${z}
    create_atoms 2 single 4.2 ${y} ${z}
    create_atoms 2 single 4.2 2.5 ${z}
    create_atoms 2 single 4.2 2.5 3.5
Created 1 atoms
  using lattice units in orthogonal box = (0 0 0) to (92.831777 92.831777 92.831777)
  create_atoms CPU = 0.000 seconds
    variable x0 equal ${x}
    variable x0 equal 4.2
    variable step equal ${step} + 1
    variable step equal 16 + 1
jump SELF loop_bead
if "${step} > ${N}" then "jump SELF end_inner"
    variable x equal ${x0} + ${dbead}
    variable x equal 4.2 + ${dbead}
    variable x equal 4.2 + 0.2
    variable y equal ${y0} + 1.5*${Ny}
    variable y equal 1 + 1.5*${Ny}
    variable y equal 1 + 1.5*1
    variable z equal ${z0} + 1.5*${Nz}
    variable z equal 2 + 1.5*${Nz}
    variable z equal 2 + 1.5*1
    create_atoms 2 single ${x} ${y} ${z}
    create_atoms 2 single 4.4 ${y} ${z}
    create_atoms 2 single 4.4 2.5 ${z}
    create_atoms 2 single 4.4 2.5 3.5
Created 1 atoms
  using lattice units in orthogonal box = (0 0 0) to (92.831777 92.831777 92.831777)
  create_atoms CPU = 0.000 seconds
    variable x0 equal ${x}
    variable x0 equal 4.4
    variable step equal ${step} + 1
    variable step equal 17 + 1
jump SELF loop_bead
if "${step} > ${N}" then "jump SELF end_inner"
    variable x equal ${x0} + ${dbead}
    variable x equal 4.4 + ${dbead}
    variable x equal 4.4 + 0.2
    variable y equal ${y0} + 1.5*${Ny}
    variable y equal 1 + 1.5*${Ny}
    variable y equal 1 + 1.5*1
    variable z equal ${z0} + 1.5*${Nz}
    variable z equal 2 + 1.5*${Nz}
    variable z equal 2 + 1.5*1
    create_atoms 2 single ${x} ${y} ${z}
    create_atoms 2 single 4.6 ${y} ${z}
    create_atoms 2 single 4.6 2.5 ${z}
    create_atoms 2 single 4.6 2.5 3.5
Created 1 atoms
  using lattice units in orthogonal box = (0 0 0) to (92.831777 92.831777 92.831777)
  create_atoms CPU = 0.000 seconds
    variable x0 equal ${x}
    variable x0 equal 4.6
    variable step equal ${step} + 1
    variable step equal 18 + 1
jump SELF loop_bead
if "${step} > ${N}" then "jump SELF end_inner"
    variable x equal ${x0} + ${dbead}
    variable x equal 4.6 + ${dbead}
    variable x equal 4.6 + 0.2
    variable y equal ${y0} + 1.5*${Ny}
    variable y equal 1 + 1.5*${Ny}
    variable y equal 1 + 1.5*1
    variable z equal ${z0} + 1.5*${Nz}
    variable z equal 2 + 1.5*${Nz}
    variable z equal 2 + 1.5*1
    create_atoms 2 single ${x} ${y} ${z}
    create_atoms 2 single 4.8 ${y} ${z}
    create_atoms 2 single 4.8 2.5 ${z}
    create_atoms 2 single 4.8 2.5 3.5
Created 1 atoms
  using lattice units in orthogonal box = (0 0 0) to (92.831777 92.831777 92.831777)
  create_atoms CPU = 0.000 seconds
    variable x0 equal ${x}
    variable x0 equal 4.8
    variable step equal ${step} + 1
    variable step equal 19 + 1
jump SELF loop_bead
if "${step} > ${N}" then "jump SELF end_inner"
    variable x equal ${x0} + ${dbead}
    variable x equal 4.8 + ${dbead}
    variable x equal 4.8 + 0.2
    variable y equal ${y0} + 1.5*${Ny}
    variable y equal 1 + 1.5*${Ny}
    variable y equal 1 + 1.5*1
    variable z equal ${z0} + 1.5*${Nz}
    variable z equal 2 + 1.5*${Nz}
    variable z equal 2 + 1.5*1
    create_atoms 2 single ${x} ${y} ${z}
    create_atoms 2 single 5 ${y} ${z}
    create_atoms 2 single 5 2.5 ${z}
    create_atoms 2 single 5 2.5 3.5
Created 1 atoms
  using lattice units in orthogonal box = (0 0 0) to (92.831777 92.831777 92.831777)
  create_atoms CPU = 0.000 seconds
    variable x0 equal ${x}
    variable x0 equal 5
    variable step equal ${step} + 1
    variable step equal 20 + 1
jump SELF loop_bead
if "${step} > ${N}" then "jump SELF end_inner"
    variable x equal ${x0} + ${dbead}
    variable x equal 5 + ${dbead}
    variable x equal 5 + 0.2
    variable y equal ${y0} + 1.5*${Ny}
    variable y equal 1 + 1.5*${Ny}
    variable y equal 1 + 1.5*1
    variable z equal ${z0} + 1.5*${Nz}
    variable z equal 2 + 1.5*${Nz}
    variable z equal 2 + 1.5*1
    create_atoms 2 single ${x} ${y} ${z}
    create_atoms 2 single 5.2 ${y} ${z}
    create_atoms 2 single 5.2 2.5 ${z}
    create_atoms 2 single 5.2 2.5 3.5
Created 1 atoms
  using lattice units in orthogonal box = (0 0 0) to (92.831777 92.831777 92.831777)
  create_atoms CPU = 0.000 seconds
    variable x0 equal ${x}
    variable x0 equal 5.2
    variable step equal ${step} + 1
    variable step equal 21 + 1
jump SELF loop_bead
if "${step} > ${N}" then "jump SELF end_inner"
    variable x equal ${x0} + ${dbead}
    variable x equal 5.2 + ${dbead}
    variable x equal 5.2 + 0.2
    variable y equal ${y0} + 1.5*${Ny}
    variable y equal 1 + 1.5*${Ny}
    variable y equal 1 + 1.5*1
    variable z equal ${z0} + 1.5*${Nz}
    variable z equal 2 + 1.5*${Nz}
    variable z equal 2 + 1.5*1
    create_atoms 2 single ${x} ${y} ${z}
    create_atoms 2 single 5.4 ${y} ${z}
    create_atoms 2 single 5.4 2.5 ${z}
    create_atoms 2 single 5.4 2.5 3.5
Created 1 atoms
  using lattice units in orthogonal box = (0 0 0) to (92.831777 92.831777 92.831777)
  create_atoms CPU = 0.000 seconds
    variable x0 equal ${x}
    variable x0 equal 5.4
    variable step equal ${step} + 1
    variable step equal 22 + 1
jump SELF loop_bead
if "${step} > ${N}" then "jump SELF end_inner"
    variable x equal ${x0} + ${dbead}
    variable x equal 5.4 + ${dbead}
    variable x equal 5.4 + 0.2
    variable y equal ${y0} + 1.5*${Ny}
    variable y equal 1 + 1.5*${Ny}
    variable y equal 1 + 1.5*1
    variable z equal ${z0} + 1.5*${Nz}
    variable z equal 2 + 1.5*${Nz}
    variable z equal 2 + 1.5*1
    create_atoms 2 single ${x} ${y} ${z}
    create_atoms 2 single 5.6 ${y} ${z}
    create_atoms 2 single 5.6 2.5 ${z}
    create_atoms 2 single 5.6 2.5 3.5
Created 1 atoms
  using lattice units in orthogonal box = (0 0 0) to (92.831777 92.831777 92.831777)
  create_atoms CPU = 0.000 seconds
    variable x0 equal ${x}
    variable x0 equal 5.6
    variable step equal ${step} + 1
    variable step equal 23 + 1
jump SELF loop_bead
if "${step} > ${N}" then "jump SELF end_inner"
    variable x equal ${x0} + ${dbead}
    variable x equal 5.6 + ${dbead}
    variable x equal 5.6 + 0.2
    variable y equal ${y0} + 1.5*${Ny}
    variable y equal 1 + 1.5*${Ny}
    variable y equal 1 + 1.5*1
    variable z equal ${z0} + 1.5*${Nz}
    variable z equal 2 + 1.5*${Nz}
    variable z equal 2 + 1.5*1
    create_atoms 2 single ${x} ${y} ${z}
    create_atoms 2 single 5.8 ${y} ${z}
    create_atoms 2 single 5.8 2.5 ${z}
    create_atoms 2 single 5.8 2.5 3.5
Created 1 atoms
  using lattice units in orthogonal box = (0 0 0) to (92.831777 92.831777 92.831777)
  create_atoms CPU = 0.000 seconds
    variable x0 equal ${x}
    variable x0 equal 5.8
    variable step equal ${step} + 1
    variable step equal 24 + 1
jump SELF loop_bead
if "${step} > ${N}" then "jump SELF end_inner"
    variable x equal ${x0} + ${dbead}
    variable x equal 5.8 + ${dbead}
    variable x equal 5.8 + 0.2
    variable y equal ${y0} + 1.5*${Ny}
    variable y equal 1 + 1.5*${Ny}
    variable y equal 1 + 1.5*1
    variable z equal ${z0} + 1.5*${Nz}
    variable z equal 2 + 1.5*${Nz}
    variable z equal 2 + 1.5*1
    create_atoms 2 single ${x} ${y} ${z}
    create_atoms 2 single 6 ${y} ${z}
    create_atoms 2 single 6 2.5 ${z}
    create_atoms 2 single 6 2.5 3.5
Created 1 atoms
  using lattice units in orthogonal box = (0 0 0) to (92.831777 92.831777 92.831777)
  create_atoms CPU = 0.000 seconds
    variable x0 equal ${x}
    variable x0 equal 6
    variable step equal ${step} + 1
    variable step equal 25 + 1
jump SELF loop_bead
if "${step} > ${N}" then "jump SELF end_inner"
    variable x equal ${x0} + ${dbead}
    variable x equal 6 + ${dbead}
    variable x equal 6 + 0.2
    variable y equal ${y0} + 1.5*${Ny}
    variable y equal 1 + 1.5*${Ny}
    variable y equal 1 + 1.5*1
    variable z equal ${z0} + 1.5*${Nz}
    variable z equal 2 + 1.5*${Nz}
    variable z equal 2 + 1.5*1
    create_atoms 2 single ${x} ${y} ${z}
    create_atoms 2 single 6.2 ${y} ${z}
    create_atoms 2 single 6.2 2.5 ${z}
    create_atoms 2 single 6.2 2.5 3.5
Created 1 atoms
  using lattice units in orthogonal box = (0 0 0) to (92.831777 92.831777 92.831777)
  create_atoms CPU = 0.000 seconds
    variable x0 equal ${x}
    variable x0 equal 6.2
    variable step equal ${step} + 1
    variable step equal 26 + 1
jump SELF loop_bead
if "${step} > ${N}" then "jump SELF end_inner"
    variable x equal ${x0} + ${dbead}
    variable x equal 6.2 + ${dbead}
    variable x equal 6.2 + 0.2
    variable y equal ${y0} + 1.5*${Ny}
    variable y equal 1 + 1.5*${Ny}
    variable y equal 1 + 1.5*1
    variable z equal ${z0} + 1.5*${Nz}
    variable z equal 2 + 1.5*${Nz}
    variable z equal 2 + 1.5*1
    create_atoms 2 single ${x} ${y} ${z}
    create_atoms 2 single 6.4 ${y} ${z}
    create_atoms 2 single 6.4 2.5 ${z}
    create_atoms 2 single 6.4 2.5 3.5
Created 1 atoms
  using lattice units in orthogonal box = (0 0 0) to (92.831777 92.831777 92.831777)
  create_atoms CPU = 0.000 seconds
    variable x0 equal ${x}
    variable x0 equal 6.4
    variable step equal ${step} + 1
    variable step equal 27 + 1
jump SELF loop_bead
if "${step} > ${N}" then "jump SELF end_inner"
    variable x equal ${x0} + ${dbead}
    variable x equal 6.4 + ${dbead}
    variable x equal 6.4 + 0.2
    variable y equal ${y0} + 1.5*${Ny}
    variable y equal 1 + 1.5*${Ny}
    variable y equal 1 + 1.5*1
    variable z equal ${z0} + 1.5*${Nz}
    variable z equal 2 + 1.5*${Nz}
    variable z equal 2 + 1.5*1
    create_atoms 2 single ${x} ${y} ${z}
    create_atoms 2 single 6.6 ${y} ${z}
    create_atoms 2 single 6.6 2.5 ${z}
    create_atoms 2 single 6.6 2.5 3.5
Created 1 atoms
  using lattice units in orthogonal box = (0 0 0) to (92.831777 92.831777 92.831777)
  create_atoms CPU = 0.000 seconds
    variable x0 equal ${x}
    variable x0 equal 6.6
    variable step equal ${step} + 1
    variable step equal 28 + 1
jump SELF loop_bead
if "${step} > ${N}" then "jump SELF end_inner"
    variable x equal ${x0} + ${dbead}
    variable x equal 6.6 + ${dbead}
    variable x equal 6.6 + 0.2
    variable y equal ${y0} + 1.5*${Ny}
    variable y equal 1 + 1.5*${Ny}
    variable y equal 1 + 1.5*1
    variable z equal ${z0} + 1.5*${Nz}
    variable z equal 2 + 1.5*${Nz}
    variable z equal 2 + 1.5*1
    create_atoms 2 single ${x} ${y} ${z}
    create_atoms 2 single 6.8 ${y} ${z}
    create_atoms 2 single 6.8 2.5 ${z}
    create_atoms 2 single 6.8 2.5 3.5
Created 1 atoms
  using lattice units in orthogonal box = (0 0 0) to (92.831777 92.831777 92.831777)
  create_atoms CPU = 0.000 seconds
    variable x0 equal ${x}
    variable x0 equal 6.8
    variable step equal ${step} + 1
    variable step equal 29 + 1
jump SELF loop_bead
if "${step} > ${N}" then "jump SELF end_inner"
    variable x equal ${x0} + ${dbead}
    variable x equal 6.8 + ${dbead}
    variable x equal 6.8 + 0.2
    variable y equal ${y0} + 1.5*${Ny}
    variable y equal 1 + 1.5*${Ny}
    variable y equal 1 + 1.5*1
    variable z equal ${z0} + 1.5*${Nz}
    variable z equal 2 + 1.5*${Nz}
    variable z equal 2 + 1.5*1
    create_atoms 2 single ${x} ${y} ${z}
    create_atoms 2 single 7 ${y} ${z}
    create_atoms 2 single 7 2.5 ${z}
    create_atoms 2 single 7 2.5 3.5
Created 1 atoms
  using lattice units in orthogonal box = (0 0 0) to (92.831777 92.831777 92.831777)
  create_atoms CPU = 0.000 seconds
    variable x0 equal ${x}
    variable x0 equal 7
    variable step equal ${step} + 1
    variable step equal 30 + 1
jump SELF loop_bead
if "${step} > ${N}" then "jump SELF end_inner"
jump SELF end_inner
variable x0 equal 1.0
variable y0 equal 1.0
variable step equal 1
next Ny
jump SELF loop_y
label loop_bead
if "${step} > ${N}" then "jump SELF end_inner"
    variable x equal ${x0} + ${dbead}
    variable x equal 1 + ${dbead}
    variable x equal 1 + 0.2
    variable y equal ${y0} + 1.5*${Ny}
    variable y equal 1 + 1.5*${Ny}
    variable y equal 1 + 1.5*2
    variable z equal ${z0} + 1.5*${Nz}
    variable z equal 2 + 1.5*${Nz}
    variable z equal 2 + 1.5*1
    create_atoms 2 single ${x} ${y} ${z}
    create_atoms 2 single 1.2 ${y} ${z}
    create_atoms 2 single 1.2 4 ${z}
    create_atoms 2 single 1.2 4 3.5
Created 1 atoms
  using lattice units in orthogonal box = (0 0 0) to (92.831777 92.831777 92.831777)
  create_atoms CPU = 0.000 seconds
    variable x0 equal ${x}
    variable x0 equal 1.2
    variable step equal ${step} + 1
    variable step equal 1 + 1
jump SELF loop_bead
if "${step} > ${N}" then "jump SELF end_inner"
    variable x equal ${x0} + ${dbead}
    variable x equal 1.2 + ${dbead}
    variable x equal 1.2 + 0.2
    variable y equal ${y0} + 1.5*${Ny}
    variable y equal 1 + 1.5*${Ny}
    variable y equal 1 + 1.5*2
    variable z equal ${z0} + 1.5*${Nz}
    variable z equal 2 + 1.5*${Nz}
    variable z equal 2 + 1.5*1
    create_atoms 2 single ${x} ${y} ${z}
    create_atoms 2 single 1.4 ${y} ${z}
    create_atoms 2 single 1.4 4 ${z}
    create_atoms 2 single 1.4 4 3.5
Created 1 atoms
  using lattice units in orthogonal box = (0 0 0) to (92.831777 92.831777 92.831777)
  create_atoms CPU = 0.000 seconds
    variable x0 equal ${x}
    variable x0 equal 1.4
    variable step equal ${step} + 1
    variable step equal 2 + 1
jump SELF loop_bead
if "${step} > ${N}" then "jump SELF end_inner"
    variable x equal ${x0} + ${dbead}
    variable x equal 1.4 + ${dbead}
    variable x equal 1.4 + 0.2
    variable y equal ${y0} + 1.5*${Ny}
    variable y equal 1 + 1.5*${Ny}
    variable y equal 1 + 1.5*2
    variable z equal ${z0} + 1.5*${Nz}
    variable z equal 2 + 1.5*${Nz}
    variable z equal 2 + 1.5*1
    create_atoms 2 single ${x} ${y} ${z}
    create_atoms 2 single 1.6 ${y} ${z}
    create_atoms 2 single 1.6 4 ${z}
    create_atoms 2 single 1.6 4 3.5
Created 1 atoms
  using lattice units in orthogonal box = (0 0 0) to (92.831777 92.831777 92.831777)
  create_atoms CPU = 0.000 seconds
    variable x0 equal ${x}
    variable x0 equal 1.6
    variable step equal ${step} + 1
    variable step equal 3 + 1
jump SELF loop_bead
if "${step} > ${N}" then "jump SELF end_inner"
    variable x equal ${x0} + ${dbead}
    variable x equal 1.6 + ${dbead}
    variable x equal 1.6 + 0.2
    variable y equal ${y0} + 1.5*${Ny}
    variable y equal 1 + 1.5*${Ny}
    variable y equal 1 + 1.5*2
    variable z equal ${z0} + 1.5*${Nz}
    variable z equal 2 + 1.5*${Nz}
    variable z equal 2 + 1.5*1
    create_atoms 2 single ${x} ${y} ${z}
    create_atoms 2 single 1.8 ${y} ${z}
    create_atoms 2 single 1.8 4 ${z}
    create_atoms 2 single 1.8 4 3.5
Created 1 atoms
  using lattice units in orthogonal box = (0 0 0) to (92.831777 92.831777 92.831777)
  create_atoms CPU = 0.000 seconds
    variable x0 equal ${x}
    variable x0 equal 1.8
    variable step equal ${step} + 1
    variable step equal 4 + 1
jump SELF loop_bead
if "${step} > ${N}" then "jump SELF end_inner"
    variable x equal ${x0} + ${dbead}
    variable x equal 1.8 + ${dbead}
    variable x equal 1.8 + 0.2
    variable y equal ${y0} + 1.5*${Ny}
    variable y equal 1 + 1.5*${Ny}
    variable y equal 1 + 1.5*2
    variable z equal ${z0} + 1.5*${Nz}
    variable z equal 2 + 1.5*${Nz}
    variable z equal 2 + 1.5*1
    create_atoms 2 single ${x} ${y} ${z}
    create_atoms 2 single 2 ${y} ${z}
    create_atoms 2 single 2 4 ${z}
    create_atoms 2 single 2 4 3.5
Created 1 atoms
  using lattice units in orthogonal box = (0 0 0) to (92.831777 92.831777 92.831777)
  create_atoms CPU = 0.000 seconds
    variable x0 equal ${x}
    variable x0 equal 2
    variable step equal ${step} + 1
    variable step equal 5 + 1
jump SELF loop_bead
if "${step} > ${N}" then "jump SELF end_inner"
    variable x equal ${x0} + ${dbead}
    variable x equal 2 + ${dbead}
    variable x equal 2 + 0.2
    variable y equal ${y0} + 1.5*${Ny}
    variable y equal 1 + 1.5*${Ny}
    variable y equal 1 + 1.5*2
    variable z equal ${z0} + 1.5*${Nz}
    variable z equal 2 + 1.5*${Nz}
    variable z equal 2 + 1.5*1
    create_atoms 2 single ${x} ${y} ${z}
    create_atoms 2 single 2.2 ${y} ${z}
    create_atoms 2 single 2.2 4 ${z}
    create_atoms 2 single 2.2 4 3.5
Created 1 atoms
  using lattice units in orthogonal box = (0 0 0) to (92.831777 92.831777 92.831777)
  create_atoms CPU = 0.000 seconds
    variable x0 equal ${x}
    variable x0 equal 2.2
    variable step equal ${step} + 1
    variable step equal 6 + 1
jump SELF loop_bead
if "${step} > ${N}" then "jump SELF end_inner"
    variable x equal ${x0} + ${dbead}
    variable x equal 2.2 + ${dbead}
    variable x equal 2.2 + 0.2
    variable y equal ${y0} + 1.5*${Ny}
    variable y equal 1 + 1.5*${Ny}
    variable y equal 1 + 1.5*2
    variable z equal ${z0} + 1.5*${Nz}
    variable z equal 2 + 1.5*${Nz}
    variable z equal 2 + 1.5*1
    create_atoms 2 single ${x} ${y} ${z}
    create_atoms 2 single 2.4 ${y} ${z}
    create_atoms 2 single 2.4 4 ${z}
    create_atoms 2 single 2.4 4 3.5
Created 1 atoms
  using lattice units in orthogonal box = (0 0 0) to (92.831777 92.831777 92.831777)
  create_atoms CPU = 0.000 seconds
    variable x0 equal ${x}
    variable x0 equal 2.4
    variable step equal ${step} + 1
    variable step equal 7 + 1
jump SELF loop_bead
if "${step} > ${N}" then "jump SELF end_inner"
    variable x equal ${x0} + ${dbead}
    variable x equal 2.4 + ${dbead}
    variable x equal 2.4 + 0.2
    variable y equal ${y0} + 1.5*${Ny}
    variable y equal 1 + 1.5*${Ny}
    variable y equal 1 + 1.5*2
    variable z equal ${z0} + 1.5*${Nz}
    variable z equal 2 + 1.5*${Nz}
    variable z equal 2 + 1.5*1
    create_atoms 2 single ${x} ${y} ${z}
    create_atoms 2 single 2.6 ${y} ${z}
    create_atoms 2 single 2.6 4 ${z}
    create_atoms 2 single 2.6 4 3.5
Created 1 atoms
  using lattice units in orthogonal box = (0 0 0) to (92.831777 92.831777 92.831777)
  create_atoms CPU = 0.000 seconds
    variable x0 equal ${x}
    variable x0 equal 2.6
    variable step equal ${step} + 1
    variable step equal 8 + 1
jump SELF loop_bead
if "${step} > ${N}" then "jump SELF end_inner"
    variable x equal ${x0} + ${dbead}
    variable x equal 2.6 + ${dbead}
    variable x equal 2.6 + 0.2
    variable y equal ${y0} + 1.5*${Ny}
    variable y equal 1 + 1.5*${Ny}
    variable y equal 1 + 1.5*2
    variable z equal ${z0} + 1.5*${Nz}
    variable z equal 2 + 1.5*${Nz}
    variable z equal 2 + 1.5*1
    create_atoms 2 single ${x} ${y} ${z}
    create_atoms 2 single 2.8 ${y} ${z}
    create_atoms 2 single 2.8 4 ${z}
    create_atoms 2 single 2.8 4 3.5
Created 1 atoms
  using lattice units in orthogonal box = (0 0 0) to (92.831777 92.831777 92.831777)
  create_atoms CPU = 0.000 seconds
    variable x0 equal ${x}
    variable x0 equal 2.8
    variable step equal ${step} + 1
    variable step equal 9 + 1
jump SELF loop_bead
if "${step} > ${N}" then "jump SELF end_inner"
    variable x equal ${x0} + ${dbead}
    variable x equal 2.8 + ${dbead}
    variable x equal 2.8 + 0.2
    variable y equal ${y0} + 1.5*${Ny}
    variable y equal 1 + 1.5*${Ny}
    variable y equal 1 + 1.5*2
    variable z equal ${z0} + 1.5*${Nz}
    variable z equal 2 + 1.5*${Nz}
    variable z equal 2 + 1.5*1
    create_atoms 2 single ${x} ${y} ${z}
    create_atoms 2 single 3 ${y} ${z}
    create_atoms 2 single 3 4 ${z}
    create_atoms 2 single 3 4 3.5
Created 1 atoms
  using lattice units in orthogonal box = (0 0 0) to (92.831777 92.831777 92.831777)
  create_atoms CPU = 0.000 seconds
    variable x0 equal ${x}
    variable x0 equal 3
    variable step equal ${step} + 1
    variable step equal 10 + 1
jump SELF loop_bead
if "${step} > ${N}" then "jump SELF end_inner"
    variable x equal ${x0} + ${dbead}
    variable x equal 3 + ${dbead}
    variable x equal 3 + 0.2
    variable y equal ${y0} + 1.5*${Ny}
    variable y equal 1 + 1.5*${Ny}
    variable y equal 1 + 1.5*2
    variable z equal ${z0} + 1.5*${Nz}
    variable z equal 2 + 1.5*${Nz}
    variable z equal 2 + 1.5*1
    create_atoms 2 single ${x} ${y} ${z}
    create_atoms 2 single 3.2 ${y} ${z}
    create_atoms 2 single 3.2 4 ${z}
    create_atoms 2 single 3.2 4 3.5
Created 1 atoms
  using lattice units in orthogonal box = (0 0 0) to (92.831777 92.831777 92.831777)
  create_atoms CPU = 0.000 seconds
    variable x0 equal ${x}
    variable x0 equal 3.2
    variable step equal ${step} + 1
    variable step equal 11 + 1
jump SELF loop_bead
if "${step} > ${N}" then "jump SELF end_inner"
    variable x equal ${x0} + ${dbead}
    variable x equal 3.2 + ${dbead}
    variable x equal 3.2 + 0.2
    variable y equal ${y0} + 1.5*${Ny}
    variable y equal 1 + 1.5*${Ny}
    variable y equal 1 + 1.5*2
    variable z equal ${z0} + 1.5*${Nz}
    variable z equal 2 + 1.5*${Nz}
    variable z equal 2 + 1.5*1
    create_atoms 2 single ${x} ${y} ${z}
    create_atoms 2 single 3.4 ${y} ${z}
    create_atoms 2 single 3.4 4 ${z}
    create_atoms 2 single 3.4 4 3.5
Created 1 atoms
  using lattice units in orthogonal box = (0 0 0) to (92.831777 92.831777 92.831777)
  create_atoms CPU = 0.000 seconds
    variable x0 equal ${x}
    variable x0 equal 3.4
    variable step equal ${step} + 1
    variable step equal 12 + 1
jump SELF loop_bead
if "${step} > ${N}" then "jump SELF end_inner"
    variable x equal ${x0} + ${dbead}
    variable x equal 3.4 + ${dbead}
    variable x equal 3.4 + 0.2
    variable y equal ${y0} + 1.5*${Ny}
    variable y equal 1 + 1.5*${Ny}
    variable y equal 1 + 1.5*2
    variable z equal ${z0} + 1.5*${Nz}
    variable z equal 2 + 1.5*${Nz}
    variable z equal 2 + 1.5*1
    create_atoms 2 single ${x} ${y} ${z}
    create_atoms 2 single 3.6 ${y} ${z}
    create_atoms 2 single 3.6 4 ${z}
    create_atoms 2 single 3.6 4 3.5
Created 1 atoms
  using lattice units in orthogonal box = (0 0 0) to (92.831777 92.831777 92.831777)
  create_atoms CPU = 0.000 seconds
    variable x0 equal ${x}
    variable x0 equal 3.6
    variable step equal ${step} + 1
    variable step equal 13 + 1
jump SELF loop_bead
if "${step} > ${N}" then "jump SELF end_inner"
    variable x equal ${x0} + ${dbead}
    variable x equal 3.6 + ${dbead}
    variable x equal 3.6 + 0.2
    variable y equal ${y0} + 1.5*${Ny}
    variable y equal 1 + 1.5*${Ny}
    variable y equal 1 + 1.5*2
    variable z equal ${z0} + 1.5*${Nz}
    variable z equal 2 + 1.5*${Nz}
    variable z equal 2 + 1.5*1
    create_atoms 2 single ${x} ${y} ${z}
    create_atoms 2 single 3.8 ${y} ${z}
    create_atoms 2 single 3.8 4 ${z}
    create_atoms 2 single 3.8 4 3.5
Created 1 atoms
  using lattice units in orthogonal box = (0 0 0) to (92.831777 92.831777 92.831777)
  create_atoms CPU = 0.000 seconds
    variable x0 equal ${x}
    variable x0 equal 3.8
    variable step equal ${step} + 1
    variable step equal 14 + 1
jump SELF loop_bead
if "${step} > ${N}" then "jump SELF end_inner"
    variable x equal ${x0} + ${dbead}
    variable x equal 3.8 + ${dbead}
    variable x equal 3.8 + 0.2
    variable y equal ${y0} + 1.5*${Ny}
    variable y equal 1 + 1.5*${Ny}
    variable y equal 1 + 1.5*2
    variable z equal ${z0} + 1.5*${Nz}
    variable z equal 2 + 1.5*${Nz}
    variable z equal 2 + 1.5*1
    create_atoms 2 single ${x} ${y} ${z}
    create_atoms 2 single 4 ${y} ${z}
    create_atoms 2 single 4 4 ${z}
    create_atoms 2 single 4 4 3.5
Created 1 atoms
  using lattice units in orthogonal box = (0 0 0) to (92.831777 92.831777 92.831777)
  create_atoms CPU = 0.000 seconds
    variable x0 equal ${x}
    variable x0 equal 4
    variable step equal ${step} + 1
    variable step equal 15 + 1
jump SELF loop_bead
if "${step} > ${N}" then "jump SELF end_inner"
    variable x equal ${x0} + ${dbead}
    variable x equal 4 + ${dbead}
    variable x equal 4 + 0.2
    variable y equal ${y0} + 1.5*${Ny}
    variable y equal 1 + 1.5*${Ny}
    variable y equal 1 + 1.5*2
    variable z equal ${z0} + 1.5*${Nz}
    variable z equal 2 + 1.5*${Nz}
    variable z equal 2 + 1.5*1
    create_atoms 2 single ${x} ${y} ${z}
    create_atoms 2 single 4.2 ${y} ${z}
    create_atoms 2 single 4.2 4 ${z}
    create_atoms 2 single 4.2 4 3.5
Created 1 atoms
  using lattice units in orthogonal box = (0 0 0) to (92.831777 92.831777 92.831777)
  create_atoms CPU = 0.000 seconds
    variable x0 equal ${x}
    variable x0 equal 4.2
    variable step equal ${step} + 1
    variable step equal 16 + 1
jump SELF loop_bead
if "${step} > ${N}" then "jump SELF end_inner"
    variable x equal ${x0} + ${dbead}
    variable x equal 4.2 + ${dbead}
    variable x equal 4.2 + 0.2
    variable y equal ${y0} + 1.5*${Ny}
    variable y equal 1 + 1.5*${Ny}
    variable y equal 1 + 1.5*2
    variable z equal ${z0} + 1.5*${Nz}
    variable z equal 2 + 1.5*${Nz}
    variable z equal 2 + 1.5*1
    create_atoms 2 single ${x} ${y} ${z}
    create_atoms 2 single 4.4 ${y} ${z}
    create_atoms 2 single 4.4 4 ${z}
    create_atoms 2 single 4.4 4 3.5
Created 1 atoms
  using lattice units in orthogonal box = (0 0 0) to (92.831777 92.831777 92.831777)
  create_atoms CPU = 0.000 seconds
    variable x0 equal ${x}
    variable x0 equal 4.4
    variable step equal ${step} + 1
    variable step equal 17 + 1
jump SELF loop_bead
if "${step} > ${N}" then "jump SELF end_inner"
    variable x equal ${x0} + ${dbead}
    variable x equal 4.4 + ${dbead}
    variable x equal 4.4 + 0.2
    variable y equal ${y0} + 1.5*${Ny}
    variable y equal 1 + 1.5*${Ny}
    variable y equal 1 + 1.5*2
    variable z equal ${z0} + 1.5*${Nz}
    variable z equal 2 + 1.5*${Nz}
    variable z equal 2 + 1.5*1
    create_atoms 2 single ${x} ${y} ${z}
    create_atoms 2 single 4.6 ${y} ${z}
    create_atoms 2 single 4.6 4 ${z}
    create_atoms 2 single 4.6 4 3.5
Created 1 atoms
  using lattice units in orthogonal box = (0 0 0) to (92.831777 92.831777 92.831777)
  create_atoms CPU = 0.000 seconds
    variable x0 equal ${x}
    variable x0 equal 4.6
    variable step equal ${step} + 1
    variable step equal 18 + 1
jump SELF loop_bead
if "${step} > ${N}" then "jump SELF end_inner"
    variable x equal ${x0} + ${dbead}
    variable x equal 4.6 + ${dbead}
    variable x equal 4.6 + 0.2
    variable y equal ${y0} + 1.5*${Ny}
    variable y equal 1 + 1.5*${Ny}
    variable y equal 1 + 1.5*2
    variable z equal ${z0} + 1.5*${Nz}
    variable z equal 2 + 1.5*${Nz}
    variable z equal 2 + 1.5*1
    create_atoms 2 single ${x} ${y} ${z}
    create_atoms 2 single 4.8 ${y} ${z}
    create_atoms 2 single 4.8 4 ${z}
    create_atoms 2 single 4.8 4 3.5
Created 1 atoms
  using lattice units in orthogonal box = (0 0 0) to (92.831777 92.831777 92.831777)
  create_atoms CPU = 0.000 seconds
    variable x0 equal ${x}
    variable x0 equal 4.8
    variable step equal ${step} + 1
    variable step equal 19 + 1
jump SELF loop_bead
if "${step} > ${N}" then "jump SELF end_inner"
    variable x equal ${x0} + ${dbead}
    variable x equal 4.8 + ${dbead}
    variable x equal 4.8 + 0.2
    variable y equal ${y0} + 1.5*${Ny}
    variable y equal 1 + 1.5*${Ny}
    variable y equal 1 + 1.5*2
    variable z equal ${z0} + 1.5*${Nz}
    variable z equal 2 + 1.5*${Nz}
    variable z equal 2 + 1.5*1
    create_atoms 2 single ${x} ${y} ${z}
    create_atoms 2 single 5 ${y} ${z}
    create_atoms 2 single 5 4 ${z}
    create_atoms 2 single 5 4 3.5
Created 1 atoms
  using lattice units in orthogonal box = (0 0 0) to (92.831777 92.831777 92.831777)
  create_atoms CPU = 0.000 seconds
    variable x0 equal ${x}
    variable x0 equal 5
    variable step equal ${step} + 1
    variable step equal 20 + 1
jump SELF loop_bead
if "${step} > ${N}" then "jump SELF end_inner"
    variable x equal ${x0} + ${dbead}
    variable x equal 5 + ${dbead}
    variable x equal 5 + 0.2
    variable y equal ${y0} + 1.5*${Ny}
    variable y equal 1 + 1.5*${Ny}
    variable y equal 1 + 1.5*2
    variable z equal ${z0} + 1.5*${Nz}
    variable z equal 2 + 1.5*${Nz}
    variable z equal 2 + 1.5*1
    create_atoms 2 single ${x} ${y} ${z}
    create_atoms 2 single 5.2 ${y} ${z}
    create_atoms 2 single 5.2 4 ${z}
    create_atoms 2 single 5.2 4 3.5
Created 1 atoms
  using lattice units in orthogonal box = (0 0 0) to (92.831777 92.831777 92.831777)
  create_atoms CPU = 0.000 seconds
    variable x0 equal ${x}
    variable x0 equal 5.2
    variable step equal ${step} + 1
    variable step equal 21 + 1
jump SELF loop_bead
if "${step} > ${N}" then "jump SELF end_inner"
    variable x equal ${x0} + ${dbead}
    variable x equal 5.2 + ${dbead}
    variable x equal 5.2 + 0.2
    variable y equal ${y0} + 1.5*${Ny}
    variable y equal 1 + 1.5*${Ny}
    variable y equal 1 + 1.5*2
    variable z equal ${z0} + 1.5*${Nz}
    variable z equal 2 + 1.5*${Nz}
    variable z equal 2 + 1.5*1
    create_atoms 2 single ${x} ${y} ${z}
    create_atoms 2 single 5.4 ${y} ${z}
    create_atoms 2 single 5.4 4 ${z}
    create_atoms 2 single 5.4 4 3.5
Created 1 atoms
  using lattice units in orthogonal box = (0 0 0) to (92.831777 92.831777 92.831777)
  create_atoms CPU = 0.000 seconds
    variable x0 equal ${x}
    variable x0 equal 5.4
    variable step equal ${step} + 1
    variable step equal 22 + 1
jump SELF loop_bead
if "${step} > ${N}" then "jump SELF end_inner"
    variable x equal ${x0} + ${dbead}
    variable x equal 5.4 + ${dbead}
    variable x equal 5.4 + 0.2
    variable y equal ${y0} + 1.5*${Ny}
    variable y equal 1 + 1.5*${Ny}
    variable y equal 1 + 1.5*2
    variable z equal ${z0} + 1.5*${Nz}
    variable z equal 2 + 1.5*${Nz}
    variable z equal 2 + 1.5*1
    create_atoms 2 single ${x} ${y} ${z}
    create_atoms 2 single 5.6 ${y} ${z}
    create_atoms 2 single 5.6 4 ${z}
    create_atoms 2 single 5.6 4 3.5
Created 1 atoms
  using lattice units in orthogonal box = (0 0 0) to (92.831777 92.831777 92.831777)
  create_atoms CPU = 0.000 seconds
    variable x0 equal ${x}
    variable x0 equal 5.6
    variable step equal ${step} + 1
    variable step equal 23 + 1
jump SELF loop_bead
if "${step} > ${N}" then "jump SELF end_inner"
    variable x equal ${x0} + ${dbead}
    variable x equal 5.6 + ${dbead}
    variable x equal 5.6 + 0.2
    variable y equal ${y0} + 1.5*${Ny}
    variable y equal 1 + 1.5*${Ny}
    variable y equal 1 + 1.5*2
    variable z equal ${z0} + 1.5*${Nz}
    variable z equal 2 + 1.5*${Nz}
    variable z equal 2 + 1.5*1
    create_atoms 2 single ${x} ${y} ${z}
    create_atoms 2 single 5.8 ${y} ${z}
    create_atoms 2 single 5.8 4 ${z}
    create_atoms 2 single 5.8 4 3.5
Created 1 atoms
  using lattice units in orthogonal box = (0 0 0) to (92.831777 92.831777 92.831777)
  create_atoms CPU = 0.000 seconds
    variable x0 equal ${x}
    variable x0 equal 5.8
    variable step equal ${step} + 1
    variable step equal 24 + 1
jump SELF loop_bead
if "${step} > ${N}" then "jump SELF end_inner"
    variable x equal ${x0} + ${dbead}
    variable x equal 5.8 + ${dbead}
    variable x equal 5.8 + 0.2
    variable y equal ${y0} + 1.5*${Ny}
    variable y equal 1 + 1.5*${Ny}
    variable y equal 1 + 1.5*2
    variable z equal ${z0} + 1.5*${Nz}
    variable z equal 2 + 1.5*${Nz}
    variable z equal 2 + 1.5*1
    create_atoms 2 single ${x} ${y} ${z}
    create_atoms 2 single 6 ${y} ${z}
    create_atoms 2 single 6 4 ${z}
    create_atoms 2 single 6 4 3.5
Created 1 atoms
  using lattice units in orthogonal box = (0 0 0) to (92.831777 92.831777 92.831777)
  create_atoms CPU = 0.000 seconds
    variable x0 equal ${x}
    variable x0 equal 6
    variable step equal ${step} + 1
    variable step equal 25 + 1
jump SELF loop_bead
if "${step} > ${N}" then "jump SELF end_inner"
    variable x equal ${x0} + ${dbead}
    variable x equal 6 + ${dbead}
    variable x equal 6 + 0.2
    variable y equal ${y0} + 1.5*${Ny}
    variable y equal 1 + 1.5*${Ny}
    variable y equal 1 + 1.5*2
    variable z equal ${z0} + 1.5*${Nz}
    variable z equal 2 + 1.5*${Nz}
    variable z equal 2 + 1.5*1
    create_atoms 2 single ${x} ${y} ${z}
    create_atoms 2 single 6.2 ${y} ${z}
    create_atoms 2 single 6.2 4 ${z}
    create_atoms 2 single 6.2 4 3.5
Created 1 atoms
  using lattice units in orthogonal box = (0 0 0) to (92.831777 92.831777 92.831777)
  create_atoms CPU = 0.000 seconds
    variable x0 equal ${x}
    variable x0 equal 6.2
    variable step equal ${step} + 1
    variable step equal 26 + 1
jump SELF loop_bead
if "${step} > ${N}" then "jump SELF end_inner"
    variable x equal ${x0} + ${dbead}
    variable x equal 6.2 + ${dbead}
    variable x equal 6.2 + 0.2
    variable y equal ${y0} + 1.5*${Ny}
    variable y equal 1 + 1.5*${Ny}
    variable y equal 1 + 1.5*2
    variable z equal ${z0} + 1.5*${Nz}
    variable z equal 2 + 1.5*${Nz}
    variable z equal 2 + 1.5*1
    create_atoms 2 single ${x} ${y} ${z}
    create_atoms 2 single 6.4 ${y} ${z}
    create_atoms 2 single 6.4 4 ${z}
    create_atoms 2 single 6.4 4 3.5
Created 1 atoms
  using lattice units in orthogonal box = (0 0 0) to (92.831777 92.831777 92.831777)
  create_atoms CPU = 0.000 seconds
    variable x0 equal ${x}
    variable x0 equal 6.4
    variable step equal ${step} + 1
    variable step equal 27 + 1
jump SELF loop_bead
if "${step} > ${N}" then "jump SELF end_inner"
    variable x equal ${x0} + ${dbead}
    variable x equal 6.4 + ${dbead}
    variable x equal 6.4 + 0.2
    variable y equal ${y0} + 1.5*${Ny}
    variable y equal 1 + 1.5*${Ny}
    variable y equal 1 + 1.5*2
    variable z equal ${z0} + 1.5*${Nz}
    variable z equal 2 + 1.5*${Nz}
    variable z equal 2 + 1.5*1
    create_atoms 2 single ${x} ${y} ${z}
    create_atoms 2 single 6.6 ${y} ${z}
    create_atoms 2 single 6.6 4 ${z}
    create_atoms 2 single 6.6 4 3.5
Created 1 atoms
  using lattice units in orthogonal box = (0 0 0) to (92.831777 92.831777 92.831777)
  create_atoms CPU = 0.000 seconds
    variable x0 equal ${x}
    variable x0 equal 6.6
    variable step equal ${step} + 1
    variable step equal 28 + 1
jump SELF loop_bead
if "${step} > ${N}" then "jump SELF end_inner"
    variable x equal ${x0} + ${dbead}
    variable x equal 6.6 + ${dbead}
    variable x equal 6.6 + 0.2
    variable y equal ${y0} + 1.5*${Ny}
    variable y equal 1 + 1.5*${Ny}
    variable y equal 1 + 1.5*2
    variable z equal ${z0} + 1.5*${Nz}
    variable z equal 2 + 1.5*${Nz}
    variable z equal 2 + 1.5*1
    create_atoms 2 single ${x} ${y} ${z}
    create_atoms 2 single 6.8 ${y} ${z}
    create_atoms 2 single 6.8 4 ${z}
    create_atoms 2 single 6.8 4 3.5
Created 1 atoms
  using lattice units in orthogonal box = (0 0 0) to (92.831777 92.831777 92.831777)
  create_atoms CPU = 0.000 seconds
    variable x0 equal ${x}
    variable x0 equal 6.8
    variable step equal ${step} + 1
    variable step equal 29 + 1
jump SELF loop_bead
if "${step} > ${N}" then "jump SELF end_inner"
    variable x equal ${x0} + ${dbead}
    variable x equal 6.8 + ${dbead}
    variable x equal 6.8 + 0.2
    variable y equal ${y0} + 1.5*${Ny}
    variable y equal 1 + 1.5*${Ny}
    variable y equal 1 + 1.5*2
    variable z equal ${z0} + 1.5*${Nz}
    variable z equal 2 + 1.5*${Nz}
    variable z equal 2 + 1.5*1
    create_atoms 2 single ${x} ${y} ${z}
    create_atoms 2 single 7 ${y} ${z}
    create_atoms 2 single 7 4 ${z}
    create_atoms 2 single 7 4 3.5
Created 1 atoms
  using lattice units in orthogonal box = (0 0 0) to (92.831777 92.831777 92.831777)
  create_atoms CPU = 0.000 seconds
    variable x0 equal ${x}
    variable x0 equal 7
    variable step equal ${step} + 1
    variable step equal 30 + 1
jump SELF loop_bead
if "${step} > ${N}" then "jump SELF end_inner"
jump SELF end_inner
variable x0 equal 1.0
variable y0 equal 1.0
variable step equal 1
next Ny
jump SELF loop_y
label loop_bead
if "${step} > ${N}" then "jump SELF end_inner"
    variable x equal ${x0} + ${dbead}
    variable x equal 1 + ${dbead}
    variable x equal 1 + 0.2
    variable y equal ${y0} + 1.5*${Ny}
    variable y equal 1 + 1.5*${Ny}
    variable y equal 1 + 1.5*3
    variable z equal ${z0} + 1.5*${Nz}
    variable z equal 2 + 1.5*${Nz}
    variable z equal 2 + 1.5*1
    create_atoms 2 single ${x} ${y} ${z}
    create_atoms 2 single 1.2 ${y} ${z}
    create_atoms 2 single 1.2 5.5 ${z}
    create_atoms 2 single 1.2 5.5 3.5
Created 1 atoms
  using lattice units in orthogonal box = (0 0 0) to (92.831777 92.831777 92.831777)
  create_atoms CPU = 0.000 seconds
    variable x0 equal ${x}
    variable x0 equal 1.2
    variable step equal ${step} + 1
    variable step equal 1 + 1
jump SELF loop_bead
if "${step} > ${N}" then "jump SELF end_inner"
    variable x equal ${x0} + ${dbead}
    variable x equal 1.2 + ${dbead}
    variable x equal 1.2 + 0.2
    variable y equal ${y0} + 1.5*${Ny}
    variable y equal 1 + 1.5*${Ny}
    variable y equal 1 + 1.5*3
    variable z equal ${z0} + 1.5*${Nz}
    variable z equal 2 + 1.5*${Nz}
    variable z equal 2 + 1.5*1
    create_atoms 2 single ${x} ${y} ${z}
    create_atoms 2 single 1.4 ${y} ${z}
    create_atoms 2 single 1.4 5.5 ${z}
    create_atoms 2 single 1.4 5.5 3.5
Created 1 atoms
  using lattice units in orthogonal box = (0 0 0) to (92.831777 92.831777 92.831777)
  create_atoms CPU = 0.000 seconds
    variable x0 equal ${x}
    variable x0 equal 1.4
    variable step equal ${step} + 1
    variable step equal 2 + 1
jump SELF loop_bead
if "${step} > ${N}" then "jump SELF end_inner"
    variable x equal ${x0} + ${dbead}
    variable x equal 1.4 + ${dbead}
    variable x equal 1.4 + 0.2
    variable y equal ${y0} + 1.5*${Ny}
    variable y equal 1 + 1.5*${Ny}
    variable y equal 1 + 1.5*3
    variable z equal ${z0} + 1.5*${Nz}
    variable z equal 2 + 1.5*${Nz}
    variable z equal 2 + 1.5*1
    create_atoms 2 single ${x} ${y} ${z}
    create_atoms 2 single 1.6 ${y} ${z}
    create_atoms 2 single 1.6 5.5 ${z}
    create_atoms 2 single 1.6 5.5 3.5
Created 1 atoms
  using lattice units in orthogonal box = (0 0 0) to (92.831777 92.831777 92.831777)
  create_atoms CPU = 0.000 seconds
    variable x0 equal ${x}
    variable x0 equal 1.6
    variable step equal ${step} + 1
    variable step equal 3 + 1
jump SELF loop_bead
if "${step} > ${N}" then "jump SELF end_inner"
    variable x equal ${x0} + ${dbead}
    variable x equal 1.6 + ${dbead}
    variable x equal 1.6 + 0.2
    variable y equal ${y0} + 1.5*${Ny}
    variable y equal 1 + 1.5*${Ny}
    variable y equal 1 + 1.5*3
    variable z equal ${z0} + 1.5*${Nz}
    variable z equal 2 + 1.5*${Nz}
    variable z equal 2 + 1.5*1
    create_atoms 2 single ${x} ${y} ${z}
    create_atoms 2 single 1.8 ${y} ${z}
    create_atoms 2 single 1.8 5.5 ${z}
    create_atoms 2 single 1.8 5.5 3.5
Created 1 atoms
  using lattice units in orthogonal box = (0 0 0) to (92.831777 92.831777 92.831777)
  create_atoms CPU = 0.000 seconds
    variable x0 equal ${x}
    variable x0 equal 1.8
    variable step equal ${step} + 1
    variable step equal 4 + 1
jump SELF loop_bead
if "${step} > ${N}" then "jump SELF end_inner"
    variable x equal ${x0} + ${dbead}
    variable x equal 1.8 + ${dbead}
    variable x equal 1.8 + 0.2
    variable y equal ${y0} + 1.5*${Ny}
    variable y equal 1 + 1.5*${Ny}
    variable y equal 1 + 1.5*3
    variable z equal ${z0} + 1.5*${Nz}
    variable z equal 2 + 1.5*${Nz}
    variable z equal 2 + 1.5*1
    create_atoms 2 single ${x} ${y} ${z}
    create_atoms 2 single 2 ${y} ${z}
    create_atoms 2 single 2 5.5 ${z}
    create_atoms 2 single 2 5.5 3.5
Created 1 atoms
  using lattice units in orthogonal box = (0 0 0) to (92.831777 92.831777 92.831777)
  create_atoms CPU = 0.000 seconds
    variable x0 equal ${x}
    variable x0 equal 2
    variable step equal ${step} + 1
    variable step equal 5 + 1
jump SELF loop_bead
if "${step} > ${N}" then "jump SELF end_inner"
    variable x equal ${x0} + ${dbead}
    variable x equal 2 + ${dbead}
    variable x equal 2 + 0.2
    variable y equal ${y0} + 1.5*${Ny}
    variable y equal 1 + 1.5*${Ny}
    variable y equal 1 + 1.5*3
    variable z equal ${z0} + 1.5*${Nz}
    variable z equal 2 + 1.5*${Nz}
    variable z equal 2 + 1.5*1
    create_atoms 2 single ${x} ${y} ${z}
    create_atoms 2 single 2.2 ${y} ${z}
    create_atoms 2 single 2.2 5.5 ${z}
    create_atoms 2 single 2.2 5.5 3.5
Created 1 atoms
  using lattice units in orthogonal box = (0 0 0) to (92.831777 92.831777 92.831777)
  create_atoms CPU = 0.000 seconds
    variable x0 equal ${x}
    variable x0 equal 2.2
    variable step equal ${step} + 1
    variable step equal 6 + 1
jump SELF loop_bead
if "${step} > ${N}" then "jump SELF end_inner"
    variable x equal ${x0} + ${dbead}
    variable x equal 2.2 + ${dbead}
    variable x equal 2.2 + 0.2
    variable y equal ${y0} + 1.5*${Ny}
    variable y equal 1 + 1.5*${Ny}
    variable y equal 1 + 1.5*3
    variable z equal ${z0} + 1.5*${Nz}
    variable z equal 2 + 1.5*${Nz}
    variable z equal 2 + 1.5*1
    create_atoms 2 single ${x} ${y} ${z}
    create_atoms 2 single 2.4 ${y} ${z}
    create_atoms 2 single 2.4 5.5 ${z}
    create_atoms 2 single 2.4 5.5 3.5
Created 1 atoms
  using lattice units in orthogonal box = (0 0 0) to (92.831777 92.831777 92.831777)
  create_atoms CPU = 0.000 seconds
    variable x0 equal ${x}
    variable x0 equal 2.4
    variable step equal ${step} + 1
    variable step equal 7 + 1
jump SELF loop_bead
if "${step} > ${N}" then "jump SELF end_inner"
    variable x equal ${x0} + ${dbead}
    variable x equal 2.4 + ${dbead}
    variable x equal 2.4 + 0.2
    variable y equal ${y0} + 1.5*${Ny}
    variable y equal 1 + 1.5*${Ny}
    variable y equal 1 + 1.5*3
    variable z equal ${z0} + 1.5*${Nz}
    variable z equal 2 + 1.5*${Nz}
    variable z equal 2 + 1.5*1
    create_atoms 2 single ${x} ${y} ${z}
    create_atoms 2 single 2.6 ${y} ${z}
    create_atoms 2 single 2.6 5.5 ${z}
    create_atoms 2 single 2.6 5.5 3.5
Created 1 atoms
  using lattice units in orthogonal box = (0 0 0) to (92.831777 92.831777 92.831777)
  create_atoms CPU = 0.000 seconds
    variable x0 equal ${x}
    variable x0 equal 2.6
    variable step equal ${step} + 1
    variable step equal 8 + 1
jump SELF loop_bead
if "${step} > ${N}" then "jump SELF end_inner"
    variable x equal ${x0} + ${dbead}
    variable x equal 2.6 + ${dbead}
    variable x equal 2.6 + 0.2
    variable y equal ${y0} + 1.5*${Ny}
    variable y equal 1 + 1.5*${Ny}
    variable y equal 1 + 1.5*3
    variable z equal ${z0} + 1.5*${Nz}
    variable z equal 2 + 1.5*${Nz}
    variable z equal 2 + 1.5*1
    create_atoms 2 single ${x} ${y} ${z}
    create_atoms 2 single 2.8 ${y} ${z}
    create_atoms 2 single 2.8 5.5 ${z}
    create_atoms 2 single 2.8 5.5 3.5
Created 1 atoms
  using lattice units in orthogonal box = (0 0 0) to (92.831777 92.831777 92.831777)
  create_atoms CPU = 0.000 seconds
    variable x0 equal ${x}
    variable x0 equal 2.8
    variable step equal ${step} + 1
    variable step equal 9 + 1
jump SELF loop_bead
if "${step} > ${N}" then "jump SELF end_inner"
    variable x equal ${x0} + ${dbead}
    variable x equal 2.8 + ${dbead}
    variable x equal 2.8 + 0.2
    variable y equal ${y0} + 1.5*${Ny}
    variable y equal 1 + 1.5*${Ny}
    variable y equal 1 + 1.5*3
    variable z equal ${z0} + 1.5*${Nz}
    variable z equal 2 + 1.5*${Nz}
    variable z equal 2 + 1.5*1
    create_atoms 2 single ${x} ${y} ${z}
    create_atoms 2 single 3 ${y} ${z}
    create_atoms 2 single 3 5.5 ${z}
    create_atoms 2 single 3 5.5 3.5
Created 1 atoms
  using lattice units in orthogonal box = (0 0 0) to (92.831777 92.831777 92.831777)
  create_atoms CPU = 0.000 seconds
    variable x0 equal ${x}
    variable x0 equal 3
    variable step equal ${step} + 1
    variable step equal 10 + 1
jump SELF loop_bead
if "${step} > ${N}" then "jump SELF end_inner"
    variable x equal ${x0} + ${dbead}
    variable x equal 3 + ${dbead}
    variable x equal 3 + 0.2
    variable y equal ${y0} + 1.5*${Ny}
    variable y equal 1 + 1.5*${Ny}
    variable y equal 1 + 1.5*3
    variable z equal ${z0} + 1.5*${Nz}
    variable z equal 2 + 1.5*${Nz}
    variable z equal 2 + 1.5*1
    create_atoms 2 single ${x} ${y} ${z}
    create_atoms 2 single 3.2 ${y} ${z}
    create_atoms 2 single 3.2 5.5 ${z}
    create_atoms 2 single 3.2 5.5 3.5
Created 1 atoms
  using lattice units in orthogonal box = (0 0 0) to (92.831777 92.831777 92.831777)
  create_atoms CPU = 0.000 seconds
    variable x0 equal ${x}
    variable x0 equal 3.2
    variable step equal ${step} + 1
    variable step equal 11 + 1
jump SELF loop_bead
if "${step} > ${N}" then "jump SELF end_inner"
    variable x equal ${x0} + ${dbead}
    variable x equal 3.2 + ${dbead}
    variable x equal 3.2 + 0.2
    variable y equal ${y0} + 1.5*${Ny}
    variable y equal 1 + 1.5*${Ny}
    variable y equal 1 + 1.5*3
    variable z equal ${z0} + 1.5*${Nz}
    variable z equal 2 + 1.5*${Nz}
    variable z equal 2 + 1.5*1
    create_atoms 2 single ${x} ${y} ${z}
    create_atoms 2 single 3.4 ${y} ${z}
    create_atoms 2 single 3.4 5.5 ${z}
    create_atoms 2 single 3.4 5.5 3.5
Created 1 atoms
  using lattice units in orthogonal box = (0 0 0) to (92.831777 92.831777 92.831777)
  create_atoms CPU = 0.000 seconds
    variable x0 equal ${x}
    variable x0 equal 3.4
    variable step equal ${step} + 1
    variable step equal 12 + 1
jump SELF loop_bead
if "${step} > ${N}" then "jump SELF end_inner"
    variable x equal ${x0} + ${dbead}
    variable x equal 3.4 + ${dbead}
    variable x equal 3.4 + 0.2
    variable y equal ${y0} + 1.5*${Ny}
    variable y equal 1 + 1.5*${Ny}
    variable y equal 1 + 1.5*3
    variable z equal ${z0} + 1.5*${Nz}
    variable z equal 2 + 1.5*${Nz}
    variable z equal 2 + 1.5*1
    create_atoms 2 single ${x} ${y} ${z}
    create_atoms 2 single 3.6 ${y} ${z}
    create_atoms 2 single 3.6 5.5 ${z}
    create_atoms 2 single 3.6 5.5 3.5
Created 1 atoms
  using lattice units in orthogonal box = (0 0 0) to (92.831777 92.831777 92.831777)
  create_atoms CPU = 0.000 seconds
    variable x0 equal ${x}
    variable x0 equal 3.6
    variable step equal ${step} + 1
    variable step equal 13 + 1
jump SELF loop_bead
if "${step} > ${N}" then "jump SELF end_inner"
    variable x equal ${x0} + ${dbead}
    variable x equal 3.6 + ${dbead}
    variable x equal 3.6 + 0.2
    variable y equal ${y0} + 1.5*${Ny}
    variable y equal 1 + 1.5*${Ny}
    variable y equal 1 + 1.5*3
    variable z equal ${z0} + 1.5*${Nz}
    variable z equal 2 + 1.5*${Nz}
    variable z equal 2 + 1.5*1
    create_atoms 2 single ${x} ${y} ${z}
    create_atoms 2 single 3.8 ${y} ${z}
    create_atoms 2 single 3.8 5.5 ${z}
    create_atoms 2 single 3.8 5.5 3.5
Created 1 atoms
  using lattice units in orthogonal box = (0 0 0) to (92.831777 92.831777 92.831777)
  create_atoms CPU = 0.000 seconds
    variable x0 equal ${x}
    variable x0 equal 3.8
    variable step equal ${step} + 1
    variable step equal 14 + 1
jump SELF loop_bead
if "${step} > ${N}" then "jump SELF end_inner"
    variable x equal ${x0} + ${dbead}
    variable x equal 3.8 + ${dbead}
    variable x equal 3.8 + 0.2
    variable y equal ${y0} + 1.5*${Ny}
    variable y equal 1 + 1.5*${Ny}
    variable y equal 1 + 1.5*3
    variable z equal ${z0} + 1.5*${Nz}
    variable z equal 2 + 1.5*${Nz}
    variable z equal 2 + 1.5*1
    create_atoms 2 single ${x} ${y} ${z}
    create_atoms 2 single 4 ${y} ${z}
    create_atoms 2 single 4 5.5 ${z}
    create_atoms 2 single 4 5.5 3.5
Created 1 atoms
  using lattice units in orthogonal box = (0 0 0) to (92.831777 92.831777 92.831777)
  create_atoms CPU = 0.000 seconds
    variable x0 equal ${x}
    variable x0 equal 4
    variable step equal ${step} + 1
    variable step equal 15 + 1
jump SELF loop_bead
if "${step} > ${N}" then "jump SELF end_inner"
    variable x equal ${x0} + ${dbead}
    variable x equal 4 + ${dbead}
    variable x equal 4 + 0.2
    variable y equal ${y0} + 1.5*${Ny}
    variable y equal 1 + 1.5*${Ny}
    variable y equal 1 + 1.5*3
    variable z equal ${z0} + 1.5*${Nz}
    variable z equal 2 + 1.5*${Nz}
    variable z equal 2 + 1.5*1
    create_atoms 2 single ${x} ${y} ${z}
    create_atoms 2 single 4.2 ${y} ${z}
    create_atoms 2 single 4.2 5.5 ${z}
    create_atoms 2 single 4.2 5.5 3.5
Created 1 atoms
  using lattice units in orthogonal box = (0 0 0) to (92.831777 92.831777 92.831777)
  create_atoms CPU = 0.000 seconds
    variable x0 equal ${x}
    variable x0 equal 4.2
    variable step equal ${step} + 1
    variable step equal 16 + 1
jump SELF loop_bead
if "${step} > ${N}" then "jump SELF end_inner"
    variable x equal ${x0} + ${dbead}
    variable x equal 4.2 + ${dbead}
    variable x equal 4.2 + 0.2
    variable y equal ${y0} + 1.5*${Ny}
    variable y equal 1 + 1.5*${Ny}
    variable y equal 1 + 1.5*3
    variable z equal ${z0} + 1.5*${Nz}
    variable z equal 2 + 1.5*${Nz}
    variable z equal 2 + 1.5*1
    create_atoms 2 single ${x} ${y} ${z}
    create_atoms 2 single 4.4 ${y} ${z}
    create_atoms 2 single 4.4 5.5 ${z}
    create_atoms 2 single 4.4 5.5 3.5
Created 1 atoms
  using lattice units in orthogonal box = (0 0 0) to (92.831777 92.831777 92.831777)
  create_atoms CPU = 0.000 seconds
    variable x0 equal ${x}
    variable x0 equal 4.4
    variable step equal ${step} + 1
    variable step equal 17 + 1
jump SELF loop_bead
if "${step} > ${N}" then "jump SELF end_inner"
    variable x equal ${x0} + ${dbead}
    variable x equal 4.4 + ${dbead}
    variable x equal 4.4 + 0.2
    variable y equal ${y0} + 1.5*${Ny}
    variable y equal 1 + 1.5*${Ny}
    variable y equal 1 + 1.5*3
    variable z equal ${z0} + 1.5*${Nz}
    variable z equal 2 + 1.5*${Nz}
    variable z equal 2 + 1.5*1
    create_atoms 2 single ${x} ${y} ${z}
    create_atoms 2 single 4.6 ${y} ${z}
    create_atoms 2 single 4.6 5.5 ${z}
    create_atoms 2 single 4.6 5.5 3.5
Created 1 atoms
  using lattice units in orthogonal box = (0 0 0) to (92.831777 92.831777 92.831777)
  create_atoms CPU = 0.000 seconds
    variable x0 equal ${x}
    variable x0 equal 4.6
    variable step equal ${step} + 1
    variable step equal 18 + 1
jump SELF loop_bead
if "${step} > ${N}" then "jump SELF end_inner"
    variable x equal ${x0} + ${dbead}
    variable x equal 4.6 + ${dbead}
    variable x equal 4.6 + 0.2
    variable y equal ${y0} + 1.5*${Ny}
    variable y equal 1 + 1.5*${Ny}
    variable y equal 1 + 1.5*3
    variable z equal ${z0} + 1.5*${Nz}
    variable z equal 2 + 1.5*${Nz}
    variable z equal 2 + 1.5*1
    create_atoms 2 single ${x} ${y} ${z}
    create_atoms 2 single 4.8 ${y} ${z}
    create_atoms 2 single 4.8 5.5 ${z}
    create_atoms 2 single 4.8 5.5 3.5
Created 1 atoms
  using lattice units in orthogonal box = (0 0 0) to (92.831777 92.831777 92.831777)
  create_atoms CPU = 0.000 seconds
    variable x0 equal ${x}
    variable x0 equal 4.8
    variable step equal ${step} + 1
    variable step equal 19 + 1
jump SELF loop_bead
if "${step} > ${N}" then "jump SELF end_inner"
    variable x equal ${x0} + ${dbead}
    variable x equal 4.8 + ${dbead}
    variable x equal 4.8 + 0.2
    variable y equal ${y0} + 1.5*${Ny}
    variable y equal 1 + 1.5*${Ny}
    variable y equal 1 + 1.5*3
    variable z equal ${z0} + 1.5*${Nz}
    variable z equal 2 + 1.5*${Nz}
    variable z equal 2 + 1.5*1
    create_atoms 2 single ${x} ${y} ${z}
    create_atoms 2 single 5 ${y} ${z}
    create_atoms 2 single 5 5.5 ${z}
    create_atoms 2 single 5 5.5 3.5
Created 1 atoms
  using lattice units in orthogonal box = (0 0 0) to (92.831777 92.831777 92.831777)
  create_atoms CPU = 0.000 seconds
    variable x0 equal ${x}
    variable x0 equal 5
    variable step equal ${step} + 1
    variable step equal 20 + 1
jump SELF loop_bead
if "${step} > ${N}" then "jump SELF end_inner"
    variable x equal ${x0} + ${dbead}
    variable x equal 5 + ${dbead}
    variable x equal 5 + 0.2
    variable y equal ${y0} + 1.5*${Ny}
    variable y equal 1 + 1.5*${Ny}
    variable y equal 1 + 1.5*3
    variable z equal ${z0} + 1.5*${Nz}
    variable z equal 2 + 1.5*${Nz}
    variable z equal 2 + 1.5*1
    create_atoms 2 single ${x} ${y} ${z}
    create_atoms 2 single 5.2 ${y} ${z}
    create_atoms 2 single 5.2 5.5 ${z}
    create_atoms 2 single 5.2 5.5 3.5
Created 1 atoms
  using lattice units in orthogonal box = (0 0 0) to (92.831777 92.831777 92.831777)
  create_atoms CPU = 0.000 seconds
    variable x0 equal ${x}
    variable x0 equal 5.2
    variable step equal ${step} + 1
    variable step equal 21 + 1
jump SELF loop_bead
if "${step} > ${N}" then "jump SELF end_inner"
    variable x equal ${x0} + ${dbead}
    variable x equal 5.2 + ${dbead}
    variable x equal 5.2 + 0.2
    variable y equal ${y0} + 1.5*${Ny}
    variable y equal 1 + 1.5*${Ny}
    variable y equal 1 + 1.5*3
    variable z equal ${z0} + 1.5*${Nz}
    variable z equal 2 + 1.5*${Nz}
    variable z equal 2 + 1.5*1
    create_atoms 2 single ${x} ${y} ${z}
    create_atoms 2 single 5.4 ${y} ${z}
    create_atoms 2 single 5.4 5.5 ${z}
    create_atoms 2 single 5.4 5.5 3.5
Created 1 atoms
  using lattice units in orthogonal box = (0 0 0) to (92.831777 92.831777 92.831777)
  create_atoms CPU = 0.000 seconds
    variable x0 equal ${x}
    variable x0 equal 5.4
    variable step equal ${step} + 1
    variable step equal 22 + 1
jump SELF loop_bead
if "${step} > ${N}" then "jump SELF end_inner"
    variable x equal ${x0} + ${dbead}
    variable x equal 5.4 + ${dbead}
    variable x equal 5.4 + 0.2
    variable y equal ${y0} + 1.5*${Ny}
    variable y equal 1 + 1.5*${Ny}
    variable y equal 1 + 1.5*3
    variable z equal ${z0} + 1.5*${Nz}
    variable z equal 2 + 1.5*${Nz}
    variable z equal 2 + 1.5*1
    create_atoms 2 single ${x} ${y} ${z}
    create_atoms 2 single 5.6 ${y} ${z}
    create_atoms 2 single 5.6 5.5 ${z}
    create_atoms 2 single 5.6 5.5 3.5
Created 1 atoms
  using lattice units in orthogonal box = (0 0 0) to (92.831777 92.831777 92.831777)
  create_atoms CPU = 0.000 seconds
    variable x0 equal ${x}
    variable x0 equal 5.6
    variable step equal ${step} + 1
    variable step equal 23 + 1
jump SELF loop_bead
if "${step} > ${N}" then "jump SELF end_inner"
    variable x equal ${x0} + ${dbead}
    variable x equal 5.6 + ${dbead}
    variable x equal 5.6 + 0.2
    variable y equal ${y0} + 1.5*${Ny}
    variable y equal 1 + 1.5*${Ny}
    variable y equal 1 + 1.5*3
    variable z equal ${z0} + 1.5*${Nz}
    variable z equal 2 + 1.5*${Nz}
    variable z equal 2 + 1.5*1
    create_atoms 2 single ${x} ${y} ${z}
    create_atoms 2 single 5.8 ${y} ${z}
    create_atoms 2 single 5.8 5.5 ${z}
    create_atoms 2 single 5.8 5.5 3.5
Created 1 atoms
  using lattice units in orthogonal box = (0 0 0) to (92.831777 92.831777 92.831777)
  create_atoms CPU = 0.000 seconds
    variable x0 equal ${x}
    variable x0 equal 5.8
    variable step equal ${step} + 1
    variable step equal 24 + 1
jump SELF loop_bead
if "${step} > ${N}" then "jump SELF end_inner"
    variable x equal ${x0} + ${dbead}
    variable x equal 5.8 + ${dbead}
    variable x equal 5.8 + 0.2
    variable y equal ${y0} + 1.5*${Ny}
    variable y equal 1 + 1.5*${Ny}
    variable y equal 1 + 1.5*3
    variable z equal ${z0} + 1.5*${Nz}
    variable z equal 2 + 1.5*${Nz}
    variable z equal 2 + 1.5*1
    create_atoms 2 single ${x} ${y} ${z}
    create_atoms 2 single 6 ${y} ${z}
    create_atoms 2 single 6 5.5 ${z}
    create_atoms 2 single 6 5.5 3.5
Created 1 atoms
  using lattice units in orthogonal box = (0 0 0) to (92.831777 92.831777 92.831777)
  create_atoms CPU = 0.000 seconds
    variable x0 equal ${x}
    variable x0 equal 6
    variable step equal ${step} + 1
    variable step equal 25 + 1
jump SELF loop_bead
if "${step} > ${N}" then "jump SELF end_inner"
    variable x equal ${x0} + ${dbead}
    variable x equal 6 + ${dbead}
    variable x equal 6 + 0.2
    variable y equal ${y0} + 1.5*${Ny}
    variable y equal 1 + 1.5*${Ny}
    variable y equal 1 + 1.5*3
    variable z equal ${z0} + 1.5*${Nz}
    variable z equal 2 + 1.5*${Nz}
    variable z equal 2 + 1.5*1
    create_atoms 2 single ${x} ${y} ${z}
    create_atoms 2 single 6.2 ${y} ${z}
    create_atoms 2 single 6.2 5.5 ${z}
    create_atoms 2 single 6.2 5.5 3.5
Created 1 atoms
  using lattice units in orthogonal box = (0 0 0) to (92.831777 92.831777 92.831777)
  create_atoms CPU = 0.000 seconds
    variable x0 equal ${x}
    variable x0 equal 6.2
    variable step equal ${step} + 1
    variable step equal 26 + 1
jump SELF loop_bead
if "${step} > ${N}" then "jump SELF end_inner"
    variable x equal ${x0} + ${dbead}
    variable x equal 6.2 + ${dbead}
    variable x equal 6.2 + 0.2
    variable y equal ${y0} + 1.5*${Ny}
    variable y equal 1 + 1.5*${Ny}
    variable y equal 1 + 1.5*3
    variable z equal ${z0} + 1.5*${Nz}
    variable z equal 2 + 1.5*${Nz}
    variable z equal 2 + 1.5*1
    create_atoms 2 single ${x} ${y} ${z}
    create_atoms 2 single 6.4 ${y} ${z}
    create_atoms 2 single 6.4 5.5 ${z}
    create_atoms 2 single 6.4 5.5 3.5
Created 1 atoms
  using lattice units in orthogonal box = (0 0 0) to (92.831777 92.831777 92.831777)
  create_atoms CPU = 0.000 seconds
    variable x0 equal ${x}
    variable x0 equal 6.4
    variable step equal ${step} + 1
    variable step equal 27 + 1
jump SELF loop_bead
if "${step} > ${N}" then "jump SELF end_inner"
    variable x equal ${x0} + ${dbead}
    variable x equal 6.4 + ${dbead}
    variable x equal 6.4 + 0.2
    variable y equal ${y0} + 1.5*${Ny}
    variable y equal 1 + 1.5*${Ny}
    variable y equal 1 + 1.5*3
    variable z equal ${z0} + 1.5*${Nz}
    variable z equal 2 + 1.5*${Nz}
    variable z equal 2 + 1.5*1
    create_atoms 2 single ${x} ${y} ${z}
    create_atoms 2 single 6.6 ${y} ${z}
    create_atoms 2 single 6.6 5.5 ${z}
    create_atoms 2 single 6.6 5.5 3.5
Created 1 atoms
  using lattice units in orthogonal box = (0 0 0) to (92.831777 92.831777 92.831777)
  create_atoms CPU = 0.000 seconds
    variable x0 equal ${x}
    variable x0 equal 6.6
    variable step equal ${step} + 1
    variable step equal 28 + 1
jump SELF loop_bead
if "${step} > ${N}" then "jump SELF end_inner"
    variable x equal ${x0} + ${dbead}
    variable x equal 6.6 + ${dbead}
    variable x equal 6.6 + 0.2
    variable y equal ${y0} + 1.5*${Ny}
    variable y equal 1 + 1.5*${Ny}
    variable y equal 1 + 1.5*3
    variable z equal ${z0} + 1.5*${Nz}
    variable z equal 2 + 1.5*${Nz}
    variable z equal 2 + 1.5*1
    create_atoms 2 single ${x} ${y} ${z}
    create_atoms 2 single 6.8 ${y} ${z}
    create_atoms 2 single 6.8 5.5 ${z}
    create_atoms 2 single 6.8 5.5 3.5
Created 1 atoms
  using lattice units in orthogonal box = (0 0 0) to (92.831777 92.831777 92.831777)
  create_atoms CPU = 0.000 seconds
    variable x0 equal ${x}
    variable x0 equal 6.8
    variable step equal ${step} + 1
    variable step equal 29 + 1
jump SELF loop_bead
if "${step} > ${N}" then "jump SELF end_inner"
    variable x equal ${x0} + ${dbead}
    variable x equal 6.8 + ${dbead}
    variable x equal 6.8 + 0.2
    variable y equal ${y0} + 1.5*${Ny}
    variable y equal 1 + 1.5*${Ny}
    variable y equal 1 + 1.5*3
    variable z equal ${z0} + 1.5*${Nz}
    variable z equal 2 + 1.5*${Nz}
    variable z equal 2 + 1.5*1
    create_atoms 2 single ${x} ${y} ${z}
    create_atoms 2 single 7 ${y} ${z}
    create_atoms 2 single 7 5.5 ${z}
    create_atoms 2 single 7 5.5 3.5
Created 1 atoms
  using lattice units in orthogonal box = (0 0 0) to (92.831777 92.831777 92.831777)
  create_atoms CPU = 0.000 seconds
    variable x0 equal ${x}
    variable x0 equal 7
    variable step equal ${step} + 1
    variable step equal 30 + 1
jump SELF loop_bead
if "${step} > ${N}" then "jump SELF end_inner"
jump SELF end_inner
variable x0 equal 1.0
variable y0 equal 1.0
variable step equal 1
next Ny
jump SELF loop_y
label loop_bead
if "${step} > ${N}" then "jump SELF end_inner"
    variable x equal ${x0} + ${dbead}
    variable x equal 1 + ${dbead}
    variable x equal 1 + 0.2
    variable y equal ${y0} + 1.5*${Ny}
    variable y equal 1 + 1.5*${Ny}
    variable y equal 1 + 1.5*4
    variable z equal ${z0} + 1.5*${Nz}
    variable z equal 2 + 1.5*${Nz}
    variable z equal 2 + 1.5*1
    create_atoms 2 single ${x} ${y} ${z}
    create_atoms 2 single 1.2 ${y} ${z}
    create_atoms 2 single 1.2 7 ${z}
    create_atoms 2 single 1.2 7 3.5
Created 1 atoms
  using lattice units in orthogonal box = (0 0 0) to (92.831777 92.831777 92.831777)
  create_atoms CPU = 0.000 seconds
    variable x0 equal ${x}
    variable x0 equal 1.2
    variable step equal ${step} + 1
    variable step equal 1 + 1
jump SELF loop_bead
if "${step} > ${N}" then "jump SELF end_inner"
    variable x equal ${x0} + ${dbead}
    variable x equal 1.2 + ${dbead}
    variable x equal 1.2 + 0.2
    variable y equal ${y0} + 1.5*${Ny}
    variable y equal 1 + 1.5*${Ny}
    variable y equal 1 + 1.5*4
    variable z equal ${z0} + 1.5*${Nz}
    variable z equal 2 + 1.5*${Nz}
    variable z equal 2 + 1.5*1
    create_atoms 2 single ${x} ${y} ${z}
    create_atoms 2 single 1.4 ${y} ${z}
    create_atoms 2 single 1.4 7 ${z}
    create_atoms 2 single 1.4 7 3.5
Created 1 atoms
  using lattice units in orthogonal box = (0 0 0) to (92.831777 92.831777 92.831777)
  create_atoms CPU = 0.000 seconds
    variable x0 equal ${x}
    variable x0 equal 1.4
    variable step equal ${step} + 1
    variable step equal 2 + 1
jump SELF loop_bead
if "${step} > ${N}" then "jump SELF end_inner"
    variable x equal ${x0} + ${dbead}
    variable x equal 1.4 + ${dbead}
    variable x equal 1.4 + 0.2
    variable y equal ${y0} + 1.5*${Ny}
    variable y equal 1 + 1.5*${Ny}
    variable y equal 1 + 1.5*4
    variable z equal ${z0} + 1.5*${Nz}
    variable z equal 2 + 1.5*${Nz}
    variable z equal 2 + 1.5*1
    create_atoms 2 single ${x} ${y} ${z}
    create_atoms 2 single 1.6 ${y} ${z}
    create_atoms 2 single 1.6 7 ${z}
    create_atoms 2 single 1.6 7 3.5
Created 1 atoms
  using lattice units in orthogonal box = (0 0 0) to (92.831777 92.831777 92.831777)
  create_atoms CPU = 0.000 seconds
    variable x0 equal ${x}
    variable x0 equal 1.6
    variable step equal ${step} + 1
    variable step equal 3 + 1
jump SELF loop_bead
if "${step} > ${N}" then "jump SELF end_inner"
    variable x equal ${x0} + ${dbead}
    variable x equal 1.6 + ${dbead}
    variable x equal 1.6 + 0.2
    variable y equal ${y0} + 1.5*${Ny}
    variable y equal 1 + 1.5*${Ny}
    variable y equal 1 + 1.5*4
    variable z equal ${z0} + 1.5*${Nz}
    variable z equal 2 + 1.5*${Nz}
    variable z equal 2 + 1.5*1
    create_atoms 2 single ${x} ${y} ${z}
    create_atoms 2 single 1.8 ${y} ${z}
    create_atoms 2 single 1.8 7 ${z}
    create_atoms 2 single 1.8 7 3.5
Created 1 atoms
  using lattice units in orthogonal box = (0 0 0) to (92.831777 92.831777 92.831777)
  create_atoms CPU = 0.000 seconds
    variable x0 equal ${x}
    variable x0 equal 1.8
    variable step equal ${step} + 1
    variable step equal 4 + 1
jump SELF loop_bead
if "${step} > ${N}" then "jump SELF end_inner"
    variable x equal ${x0} + ${dbead}
    variable x equal 1.8 + ${dbead}
    variable x equal 1.8 + 0.2
    variable y equal ${y0} + 1.5*${Ny}
    variable y equal 1 + 1.5*${Ny}
    variable y equal 1 + 1.5*4
    variable z equal ${z0} + 1.5*${Nz}
    variable z equal 2 + 1.5*${Nz}
    variable z equal 2 + 1.5*1
    create_atoms 2 single ${x} ${y} ${z}
    create_atoms 2 single 2 ${y} ${z}
    create_atoms 2 single 2 7 ${z}
    create_atoms 2 single 2 7 3.5
Created 1 atoms
  using lattice units in orthogonal box = (0 0 0) to (92.831777 92.831777 92.831777)
  create_atoms CPU = 0.000 seconds
    variable x0 equal ${x}
    variable x0 equal 2
    variable step equal ${step} + 1
    variable step equal 5 + 1
jump SELF loop_bead
if "${step} > ${N}" then "jump SELF end_inner"
    variable x equal ${x0} + ${dbead}
    variable x equal 2 + ${dbead}
    variable x equal 2 + 0.2
    variable y equal ${y0} + 1.5*${Ny}
    variable y equal 1 + 1.5*${Ny}
    variable y equal 1 + 1.5*4
    variable z equal ${z0} + 1.5*${Nz}
    variable z equal 2 + 1.5*${Nz}
    variable z equal 2 + 1.5*1
    create_atoms 2 single ${x} ${y} ${z}
    create_atoms 2 single 2.2 ${y} ${z}
    create_atoms 2 single 2.2 7 ${z}
    create_atoms 2 single 2.2 7 3.5
Created 1 atoms
  using lattice units in orthogonal box = (0 0 0) to (92.831777 92.831777 92.831777)
  create_atoms CPU = 0.000 seconds
    variable x0 equal ${x}
    variable x0 equal 2.2
    variable step equal ${step} + 1
    variable step equal 6 + 1
jump SELF loop_bead
if "${step} > ${N}" then "jump SELF end_inner"
    variable x equal ${x0} + ${dbead}
    variable x equal 2.2 + ${dbead}
    variable x equal 2.2 + 0.2
    variable y equal ${y0} + 1.5*${Ny}
    variable y equal 1 + 1.5*${Ny}
    variable y equal 1 + 1.5*4
    variable z equal ${z0} + 1.5*${Nz}
    variable z equal 2 + 1.5*${Nz}
    variable z equal 2 + 1.5*1
    create_atoms 2 single ${x} ${y} ${z}
    create_atoms 2 single 2.4 ${y} ${z}
    create_atoms 2 single 2.4 7 ${z}
    create_atoms 2 single 2.4 7 3.5
Created 1 atoms
  using lattice units in orthogonal box = (0 0 0) to (92.831777 92.831777 92.831777)
  create_atoms CPU = 0.000 seconds
    variable x0 equal ${x}
    variable x0 equal 2.4
    variable step equal ${step} + 1
    variable step equal 7 + 1
jump SELF loop_bead
if "${step} > ${N}" then "jump SELF end_inner"
    variable x equal ${x0} + ${dbead}
    variable x equal 2.4 + ${dbead}
    variable x equal 2.4 + 0.2
    variable y equal ${y0} + 1.5*${Ny}
    variable y equal 1 + 1.5*${Ny}
    variable y equal 1 + 1.5*4
    variable z equal ${z0} + 1.5*${Nz}
    variable z equal 2 + 1.5*${Nz}
    variable z equal 2 + 1.5*1
    create_atoms 2 single ${x} ${y} ${z}
    create_atoms 2 single 2.6 ${y} ${z}
    create_atoms 2 single 2.6 7 ${z}
    create_atoms 2 single 2.6 7 3.5
Created 1 atoms
  using lattice units in orthogonal box = (0 0 0) to (92.831777 92.831777 92.831777)
  create_atoms CPU = 0.000 seconds
    variable x0 equal ${x}
    variable x0 equal 2.6
    variable step equal ${step} + 1
[...]
367000  ekin = 42.284255518283 | epot = 0.244356283020075 | erot = 41.8231385966931 | ebond = 1.58533756755853 | etot = 85.9370879655547
368000  ekin = 43.7843836217594 | epot = 0.181004732475433 | erot = 44.2861249650289 | ebond = 1.72952830150465 | etot = 89.9810416207684
369000  ekin = 43.0990051344991 | epot = 0.21620591250353 | erot = 42.499031570149 | ebond = 1.94122998341271 | etot = 87.7554726005643
370000  ekin = 42.8238736911939 | epot = 0.261498181324439 | erot = 41.8008911346445 | ebond = 1.71592009519907 | etot = 86.6021831023619
371000  ekin = 42.8658799578824 | epot = 0.172804896623614 | erot = 41.6095487090295 | ebond = 1.65081758191249 | etot = 86.299051145448
372000  ekin = 42.9259152786449 | epot = 0.154360602567556 | erot = 42.6382644594632 | ebond = 1.72594568870128 | etot = 87.4444860293769
373000  ekin = 42.2611135302736 | epot = 0.319469922018741 | erot = 43.6341981978268 | ebond = 1.65602354397265 | etot = 87.8708051940918
374000  ekin = 42.4168223572566 | epot = 0.216683178628794 | erot = 42.8940026492293 | ebond = 1.75422711899547 | etot = 87.2817353041102
375000  ekin = 42.2401612383295 | epot = 0.19847276575524 | erot = 42.0153475926684 | ebond = 1.80461754328749 | etot = 86.2585991400406
376000  ekin = 43.22953633045 | epot = 0.299969623572447 | erot = 42.9808433932726 | ebond = 1.53200210338537 | etot = 88.0423514506804
377000  ekin = 43.6734083441422 | epot = 0.163772298191497 | erot = 41.4028432723814 | ebond = 1.55958716771259 | etot = 86.7996110824276
378000  ekin = 41.7688033068378 | epot = 0.129487126277842 | erot = 42.5991128862067 | ebond = 1.81273379254983 | etot = 86.3101371118722
379000  ekin = 42.142242866464 | epot = 0.3348007229497 | erot = 42.1956721376847 | ebond = 1.82926108949011 | etot = 86.5019768165885
380000  ekin = 43.4477568347692 | epot = 0.197108784604094 | erot = 42.0008140778074 | ebond = 1.56869595269963 | etot = 87.2143756498803
381000  ekin = 42.6753571913437 | epot = 0.1272365121274 | erot = 42.3226029633618 | ebond = 1.70867913335344 | etot = 86.8338758001864
382000  ekin = 42.7603888447799 | epot = 0.222049213240092 | erot = 43.7255954458117 | ebond = 1.63808519714696 | etot = 88.3461187009786
383000  ekin = 42.6837391838949 | epot = 0.135291442202383 | erot = 41.915350786009 | ebond = 1.88679554026325 | etot = 86.6211769523696
384000  ekin = 43.1309309512674 | epot = 0.137219692282662 | erot = 41.7789060631432 | ebond = 1.86082858084529 | etot = 86.9078852875385
385000  ekin = 43.1147018866469 | epot = 0.161640856144682 | erot = 42.5938533243511 | ebond = 1.60602917795653 | etot = 87.4762252450993
386000  ekin = 43.9930831044283 | epot = 0.0732309759757803 | erot = 41.1302949800176 | ebond = 1.50510846147395 | etot = 86.7017175218957
387000  ekin = 43.8265182531155 | epot = 0.249272130051928 | erot = 42.0971269176206 | ebond = 1.75491686512509 | etot = 87.9278341659131
388000  ekin = 42.9538185736688 | epot = 0.219931913980595 | erot = 43.2227164881379 | ebond = 1.61146552596011 | etot = 88.0079325017474
389000  ekin = 42.3381001197408 | epot = 0.13140723787389 | erot = 43.3935037745518 | ebond = 1.76387910388877 | etot = 87.6268902360552
390000  ekin = 42.5179183818357 | epot = 0.134742068697783 | erot = 42.7689376428929 | ebond = 2.14973670602463 | etot = 87.5713347994509
391000  ekin = 42.3680901712145 | epot = 0.223636493624986 | erot = 42.9606966648369 | ebond = 1.90494099787154 | etot = 87.4573643275479
392000  ekin = 42.7824985496767 | epot = 0.111458327178253 | erot = 41.8597608961613 | ebond = 1.66138582739231 | etot = 86.4151036004086
393000  ekin = 42.0861937901882 | epot = 0.0768489291319672 | erot = 42.8311689996412 | ebond = 1.53382407166628 | etot = 86.5280357906276
394000  ekin = 42.3403593139354 | epot = 0.109010800696367 | erot = 42.1156264287929 | ebond = 1.76668744065616 | etot = 86.3316839840808
395000  ekin = 42.7935406280492 | epot = 0.174105978127425 | erot = 43.1640382088082 | ebond = 1.94832272202601 | etot = 88.0800075370108
396000  ekin = 41.6590376312858 | epot = 0.205527595995394 | erot = 42.4749246190079 | ebond = 2.05162586338682 | etot = 86.3911157096759
397000  ekin = 41.3394383724385 | epot = 0.11076310315041 | erot = 42.0927796308409 | ebond = 1.76541299570242 | etot = 85.3083941021322
398000  ekin = 42.6158362615205 | epot = 0.165469438851991 | erot = 43.2067079253182 | ebond = 1.64947761062363 | etot = 87.6374912363143
399000  ekin = 42.7316246261719 | epot = 0.161278977158045 | erot = 42.8344222274654 | ebond = 1.76948195320256 | etot = 87.4968077839979
400000  ekin = 41.0492262381533 | epot = 0.157865826065017 | erot = 41.7441130406268 | ebond = 1.65963772764879 | etot = 84.610842832494
401000  ekin = 42.1974880287208 | epot = 0.197498438293163 | erot = 42.8177301146104 | ebond = 1.57019014457006 | etot = 86.7829067261944
402000  ekin = 42.4083636239491 | epot = 0.173083903172297 | erot = 42.5528379596873 | ebond = 1.65337701258745 | etot = 86.7876624993961
403000  ekin = 42.4104972694071 | epot = 0.187526757654974 | erot = 43.3024736849619 | ebond = 1.86739914731312 | etot = 87.7678968593371
404000  ekin = 42.3737790121301 | epot = 0.11590723178446 | erot = 41.8043055981419 | ebond = 1.49548170840871 | etot = 85.7894735504652
405000  ekin = 43.269720032199 | epot = 0.115391889013116 | erot = 42.5508930807311 | ebond = 1.71384219635158 | etot = 87.6498471982948
406000  ekin = 42.0071521828969 | epot = 0.281598732912972 | erot = 42.4844724172925 | ebond = 1.71551028121666 | etot = 86.488733614319
407000  ekin = 42.4372065423145 | epot = 0.168485055118447 | erot = 42.0750193812555 | ebond = 1.64350898405822 | etot = 86.3242199627466
408000  ekin = 41.598845892624 | epot = 0.0821251735120037 | erot = 42.3241331072889 | ebond = 2.09163676953129 | etot = 86.0967409429561
409000  ekin = 42.7625881839183 | epot = 0.0999216272402076 | erot = 42.4658044025842 | ebond = 1.72345875636666 | etot = 87.0517729701094
410000  ekin = 43.4310426428021 | epot = 0.151519534087774 | erot = 42.9082511017991 | ebond = 1.68583211866503 | etot = 88.176645397354
411000  ekin = 43.6210187886 | epot = 0.116388031958016 | erot = 42.8840972552908 | ebond = 1.7927591871048 | etot = 88.4142632629536
412000  ekin = 43.0936919479501 | epot = 0.174106289485617 | erot = 41.357679018062 | ebond = 1.7622672121545 | etot = 86.3877444676523
413000  ekin = 43.0458612443425 | epot = 0.177372185194802 | erot = 41.9339163534815 | ebond = 1.70357463220385 | etot = 86.8607244152227
414000  ekin = 43.062896702256 | epot = 0.142728561775188 | erot = 42.3831952761306 | ebond = 1.65548162006953 | etot = 87.2443021602314
415000  ekin = 42.5468058062905 | epot = 0.164333311813869 | erot = 42.6492507641634 | ebond = 1.70838495113804 | etot = 87.0687748334057
416000  ekin = 42.4665887506321 | epot = 0.107803325924855 | erot = 43.1781361261756 | ebond = 1.7866184360311 | etot = 87.5391466387637
417000  ekin = 41.408159036106 | epot = 0.283970646832461 | erot = 43.5579024211683 | ebond = 1.68912225447249 | etot = 86.9391543585792
418000  ekin = 42.2500732070114 | epot = 0.07907714069635 | erot = 44.1792808074838 | ebond = 1.6471640451904 | etot = 88.155595200382
419000  ekin = 41.8899823656583 | epot = 0.222346684402493 | erot = 42.2386250839295 | ebond = 1.83155385843401 | etot = 86.1825079924242
420000  ekin = 42.2863724019676 | epot = 0.13230991765484 | erot = 42.7479902552384 | ebond = 2.02200162912085 | etot = 87.1886742039817
421000  ekin = 42.0488405340963 | epot = 0.175567467137079 | erot = 41.8481764571567 | ebond = 1.77571193183005 | etot = 85.8482963902201
422000  ekin = 41.8349273103051 | epot = 0.0973351424566467 | erot = 42.1944282366738 | ebond = 1.81253092651726 | etot = 85.9392216159528
423000  ekin = 41.5409981298065 | epot = 0.110857097909787 | erot = 42.574834503374 | ebond = 1.73115379451595 | etot = 85.9578435256062
424000  ekin = 42.4784372806449 | epot = 0.11525771535779 | erot = 41.7390741813798 | ebond = 1.79641722035485 | etot = 86.1291863977374
425000  ekin = 43.1526356577245 | epot = 0.126765836050879 | erot = 42.1300127597492 | ebond = 1.70037615734874 | etot = 87.1097904108733
426000  ekin = 41.6776085291076 | epot = 0.160451388931856 | erot = 42.8859698937355 | ebond = 1.95995862283066 | etot = 86.6839884346056
427000  ekin = 41.2052931761193 | epot = 0.150884048048124 | erot = 42.6890625483408 | ebond = 1.89309157297338 | etot = 85.9383313454816
428000  ekin = 41.5964303015033 | epot = 0.151101875218105 | erot = 41.4196932274266 | ebond = 1.87251471671107 | etot = 85.0397401208591
429000  ekin = 42.1348397078229 | epot = 0.156045908077675 | erot = 41.8046029033778 | ebond = 1.92020249963702 | etot = 86.0156910189155
430000  ekin = 41.8427840632643 | epot = 0.195775877538596 | erot = 42.0497694947946 | ebond = 1.70632781128745 | etot = 85.7946572468849
431000  ekin = 43.6751207201373 | epot = 0.127514673684907 | erot = 43.0837093677405 | ebond = 1.85217022613006 | etot = 88.7385149876928
432000  ekin = 43.3810620857236 | epot = 0.149813142091116 | erot = 42.8480100738934 | ebond = 1.88252039909402 | etot = 88.2614057008021
433000  ekin = 42.4608700856345 | epot = 0.120578241505086 | erot = 42.636754355308 | ebond = 1.90683287107279 | etot = 87.1250355535204
434000  ekin = 42.749395676452 | epot = 0.183006052626927 | erot = 42.4798478292413 | ebond = 1.81354698818893 | etot = 87.2257965465092
435000  ekin = 42.3750729820579 | epot = 0.146288277726752 | erot = 42.026397235124 | ebond = 1.84310085994049 | etot = 86.3908593548491
436000  ekin = 41.7705599982206 | epot = 0.131808963041962 | erot = 42.9249144635831 | ebond = 1.76267958580133 | etot = 86.589963010647
437000  ekin = 43.541709041599 | epot = 0.22335223137963 | erot = 42.5112026255944 | ebond = 1.63609049743236 | etot = 87.9123543960054
438000  ekin = 43.13183281114 | epot = 0.218741765809318 | erot = 43.1085261678207 | ebond = 1.71070780414383 | etot = 88.1698085489138
439000  ekin = 43.0161091425873 | epot = 0.127259812318673 | erot = 43.1955637318926 | ebond = 1.95281372407228 | etot = 88.2917464108708
440000  ekin = 42.2422288463845 | epot = 0.144444112222753 | erot = 42.2078897504708 | ebond = 1.90820910178142 | etot = 86.5027718108596
441000  ekin = 42.1427658534309 | epot = 0.113950706172312 | erot = 43.7449386576029 | ebond = 1.99741212633341 | etot = 87.9990673435396
442000  ekin = 42.6803748037326 | epot = 0.185018453098249 | erot = 40.8675950707242 | ebond = 1.87185400921331 | etot = 85.6048423367683
443000  ekin = 42.2996009011587 | epot = 0.0942987546196167 | erot = 42.6696031440698 | ebond = 1.84331387519448 | etot = 86.9068166750426
444000  ekin = 43.6003971837298 | epot = 0.176218316820125 | erot = 42.1511926369252 | ebond = 1.63460867851226 | etot = 87.5624168159874
445000  ekin = 40.8486289512305 | epot = 0.0830118586601127 | erot = 41.6550772586656 | ebond = 1.99700192044622 | etot = 84.5837199890024
446000  ekin = 42.4478932889293 | epot = 0.123193240207734 | erot = 42.2551831957785 | ebond = 1.77584417863444 | etot = 86.6021139035499
447000  ekin = 42.0794549182028 | epot = 0.161187919960042 | erot = 42.4386546416591 | ebond = 1.86132111133819 | etot = 86.5406185911602
448000  ekin = 42.1811135612094 | epot = 0.122663780528037 | erot = 42.9257227461372 | ebond = 2.07962703637201 | etot = 87.3091271242467
449000  ekin = 42.2215830069206 | epot = 0.136321239672359 | erot = 42.2128881803589 | ebond = 1.93169103501517 | etot = 86.502483461967
450000  ekin = 43.2179829324584 | epot = 0.196731694918955 | erot = 41.0751272717122 | ebond = 1.88571364026807 | etot = 86.3755555393576
451000  ekin = 43.5020574248014 | epot = 0.141678254992423 | erot = 42.237903114357 | ebond = 1.93791253069283 | etot = 87.8195513248437
452000  ekin = 44.2430628313164 | epot = 0.176516201775607 | erot = 42.1379152417057 | ebond = 1.91848678359812 | etot = 88.4759810583958
453000  ekin = 42.5132596865158 | epot = 0.140408111375215 | erot = 42.5974750531644 | ebond = 2.11146230274095 | etot = 87.3626051537963
454000  ekin = 43.5526466272147 | epot = 0.15099877063147 | erot = 42.7614964469482 | ebond = 1.96583101397316 | etot = 88.4309728587676
455000  ekin = 42.3665519311109 | epot = 0.14864308793852 | erot = 41.6580045748108 | ebond = 1.66506341693571 | etot = 85.8382630107959
456000  ekin = 41.7994301688303 | epot = 0.173345017800988 | erot = 43.2987781192229 | ebond = 1.69838406930416 | etot = 86.9699373751583
457000  ekin = 42.6971599865934 | epot = 0.167425757327587 | erot = 42.2654462975858 | ebond = 1.58737334105158 | etot = 86.7174053825583
458000  ekin = 41.9633565697958 | epot = 0.114740001839563 | erot = 42.387257088539 | ebond = 1.78869191183277 | etot = 86.2540455720072
459000  ekin = 41.4200183260505 | epot = 0.119052206592554 | erot = 42.0700898265917 | ebond = 1.67195896076862 | etot = 85.2811193200034
460000  ekin = 42.7656493532806 | epot = 0.117326146169597 | erot = 42.78840671631 | ebond = 1.91397568338698 | etot = 87.5853578991472
461000  ekin = 43.2145948711864 | epot = 0.186369104049969 | erot = 42.5592608917735 | ebond = 1.58871702337825 | etot = 87.5489418903881
462000  ekin = 42.0827908145987 | epot = 0.131499056597795 | erot = 42.0726379448896 | ebond = 1.74718834390553 | etot = 86.0341161599916
463000  ekin = 42.3540866342869 | epot = 0.129239117344502 | erot = 41.7039820322151 | ebond = 1.50580346798608 | etot = 85.6931112518325
464000  ekin = 42.0723157946488 | epot = 0.167958070397607 | erot = 41.7781040409689 | ebond = 1.7730426427947 | etot = 85.79142054881
465000  ekin = 41.5829514471261 | epot = 0.188496000785866 | erot = 42.1872767577786 | ebond = 1.75421290293969 | etot = 85.7129371086303
466000  ekin = 41.6029611948201 | epot = 0.22339788509632 | erot = 43.1440434312074 | ebond = 1.75933254161816 | etot = 86.729735052742
467000  ekin = 41.0299116340418 | epot = 0.163950174873181 | erot = 42.4920516119978 | ebond = 1.84267868491097 | etot = 85.5285921058237
468000  ekin = 42.6978666256041 | epot = 0.183639927721817 | erot = 42.5065326475251 | ebond = 1.71256114814125 | etot = 87.1006003489922
469000  ekin = 42.8116546736399 | epot = 0.179340046327949 | erot = 42.2942830577024 | ebond = 1.67071252418105 | etot = 86.9559903018513
470000  ekin = 43.2386657424199 | epot = 0.126282779959624 | erot = 43.1356386159988 | ebond = 1.53895845394068 | etot = 88.039545592319
471000  ekin = 42.0998330498699 | epot = 0.161894499932817 | erot = 42.1369873881802 | ebond = 1.54969379759657 | etot = 85.9484087355795
472000  ekin = 43.0254118209049 | epot = 0.170373131077837 | erot = 42.6457946976122 | ebond = 1.66872784495069 | etot = 87.5103074945456
473000  ekin = 42.6005873080901 | epot = 0.200943008393421 | erot = 42.7500448352385 | ebond = 1.75400597853832 | etot = 87.3055811302603
474000  ekin = 41.9262502374703 | epot = 0.127134819743704 | erot = 42.938604279745 | ebond = 1.8652026310964 | etot = 86.8571919680555
475000  ekin = 41.8667776567477 | epot = 0.127325189072359 | erot = 41.9463163940415 | ebond = 1.77389176415707 | etot = 85.7143110040186
476000  ekin = 42.8863948729255 | epot = 0.110378550445606 | erot = 41.7842362254795 | ebond = 1.82679143029999 | etot = 86.6078010791505
477000  ekin = 43.5783318021735 | epot = 0.201783212350285 | erot = 42.6622800582689 | ebond = 1.67922529864645 | etot = 88.1216203714392
478000  ekin = 42.7786143135317 | epot = 0.127483947377033 | erot = 41.9302984437999 | ebond = 1.6543017091955 | etot = 86.4906984139041
479000  ekin = 42.6945829312349 | epot = 0.161544073817723 | erot = 40.8885152948193 | ebond = 1.6297651966736 | etot = 85.3744074965455
480000  ekin = 41.7243441923648 | epot = 0.182208760000341 | erot = 42.6460369624172 | ebond = 1.94335106209932 | etot = 86.4959409768816
481000  ekin = 43.7680085496783 | epot = 0.251867366113775 | erot = 42.8937942843776 | ebond = 1.94978954853793 | etot = 88.8634597487076
482000  ekin = 42.427596163911 | epot = 0.113576510029932 | erot = 41.7470166428757 | ebond = 1.71197641840244 | etot = 86.0001657352192
483000  ekin = 42.9540883366119 | epot = 0.119862800050893 | erot = 43.0455042173967 | ebond = 1.87047216402429 | etot = 87.9899275180838
484000  ekin = 42.5185673613775 | epot = 0.151908832141501 | erot = 44.3255190199635 | ebond = 1.59393652571265 | etot = 88.5899317391952
485000  ekin = 42.0512317480364 | epot = 0.14995197679457 | erot = 41.6184160299767 | ebond = 1.6786967807089 | etot = 85.4982965355166
486000  ekin = 42.2577481501782 | epot = 0.15354785734912 | erot = 42.3394532963437 | ebond = 1.63883468589697 | etot = 86.389583989768
487000  ekin = 41.9452804254011 | epot = 0.128463783878508 | erot = 41.0038313769125 | ebond = 1.60686766324745 | etot = 84.6844432494395
488000  ekin = 41.4574792224093 | epot = 0.128124728486659 | erot = 42.9394494566499 | ebond = 1.71717201713086 | etot = 86.2422254246766
489000  ekin = 41.8168400562171 | epot = 0.184027949958665 | erot = 41.7535424719029 | ebond = 1.82949726098556 | etot = 85.5839077390642
490000  ekin = 43.0498898354199 | epot = 0.150318308878296 | erot = 42.809425062104 | ebond = 1.8477223941637 | etot = 87.8573556005659
491000  ekin = 42.1632317530252 | epot = 0.177123977032158 | erot = 41.3812789634336 | ebond = 1.61890713131374 | etot = 85.3405418248047
492000  ekin = 42.1698417699645 | epot = 0.189970423669289 | erot = 42.4669997361219 | ebond = 1.67281969392973 | etot = 86.4996316236854
493000  ekin = 42.8487662198996 | epot = 0.2487038032185 | erot = 43.0725615874762 | ebond = 1.79876002250021 | etot = 87.9687916330945
494000  ekin = 42.4692803894069 | epot = 0.21244248263206 | erot = 43.0784161511508 | ebond = 1.88233956105182 | etot = 87.6424785842416
495000  ekin = 42.1283466078424 | epot = 0.225157489121303 | erot = 40.8305743020738 | ebond = 1.77681899836286 | etot = 84.9608973974004
496000  ekin = 42.3461836537899 | epot = 0.1469861087508 | erot = 42.3041558084427 | ebond = 1.71674930932698 | etot = 86.5140748803104
497000  ekin = 43.2943100626354 | epot = 0.132129611912025 | erot = 42.4824958095228 | ebond = 1.84324084803395 | etot = 87.7521763321041
498000  ekin = 43.4193703895535 | epot = 0.110842290323868 | erot = 43.7148643017356 | ebond = 1.82106034783082 | etot = 89.0661373294438
499000  ekin = 42.9495451437238 | epot = 0.281734215412344 | erot = 42.846704873662 | ebond = 1.69443397322592 | etot = 87.772418206024
500000  ekin = 43.5968596127846 | epot = 0.0811965131858516 | erot = 42.6099076975044 | ebond = 1.62611097442917 | etot = 87.914074797904
    500000   0.010273797    2.8691347e-05  0.00057459752  0.01600854     2.4925103e-05
Loop time of 45.3383 on 8 procs for 500000 steps with 2830 atoms

Performance: 952836.238 tau/day, 11028.197 timesteps/s, 31.210 Matom-step/s
98.6% CPU use with 8 MPI tasks x 1 OpenMP threads

MPI task timing breakdown:
Section |  min time  |  avg time  |  max time  |%varavg| %total
---------------------------------------------------------------
Pair    | 0.55926    | 0.60534    | 0.66432    |   5.4 |  1.34
Bond    | 0.10284    | 0.18049    | 0.2628     |  14.6 |  0.40
Neigh   | 0.018697   | 0.019259   | 0.019535   |   0.2 |  0.04
Comm    | 6.2311     | 6.7639     | 7.3594     |  13.0 | 14.92
Output  | 0.32479    | 0.37641    | 0.42469    |   5.4 |  0.83
Modify  | 31.853     | 33.746     | 35.718     |  26.4 | 74.43
Other   |            | 3.647      |            |       |  8.04

Nlocal:         353.75 ave         377 max         335 min
Histogram: 3 0 1 0 0 1 0 1 1 1
Nghost:         189.75 ave         219 max         156 min
Histogram: 1 1 0 0 2 1 1 0 0 2
Neighs:        262.375 ave         308 max         221 min
Histogram: 1 1 0 2 1 0 0 2 0 1

Total # of neighbors = 2099
Ave neighs/atom = 0.74169611
Ave special neighs/atom = 0.71236749
Neighbor list builds = 246
Dangerous builds = 0

write_data data_out.* nocoeff
System init for write_data ...
Generated 0 of 1 mixed pair_coeff terms from geometric mixing rule

Total wall time: 0:00:45
