LAMMPS (10 Dec 2025 - Development - patch_10Dec2025-535-gc621e1a2c0-modified)
KOKKOS mode with Kokkos version 5.0.0 is enabled
  using double precision
  using view layout = default
  will use up to 1 GPU(s) per node
  using 2 OpenMP thread(s) per MPI task
package kokkos
###
# Box and units  (use LJ units and periodic boundaries)
###

units           lj
atom_style      hybrid bond ellipsoid
WARNING: Atom style hybrid defines both, per-type and per-atom masses; both must be set, but only per-atom masses will be used (src/atom_vec_hybrid.cpp:132)
dimension	    3
boundary	    p p p
#newton 		    on

lattice		    diamond 0.01
Lattice spacing in x,y,z = 9.2831777 9.2831777 9.2831777
region		    box block 0 10 0 10 0 10
create_box	    2 box bond/types 1 extra/bond/per/atom 2
Created orthogonal box = (0 0 0) to (92.831777 92.831777 92.831777)
  1 by 1 by 1 MPI processor grid
#create_box      2 box

###################################################################
# Create Atoms in empty space
#
region         lower block 1 9 1 9 1 3
create_atoms   1 region lower
Created 1235 atoms
  using lattice units in orthogonal box = (0 0 0) to (92.831777 92.831777 92.831777)
  create_atoms CPU = 0.048 seconds
region         upper block 1 9 1 9 7 9
create_atoms   1 region upper
Created 1235 atoms
  using lattice units in orthogonal box = (0 0 0) to (92.831777 92.831777 92.831777)
  create_atoms CPU = 0.008 seconds

###################################################################
# Create Polymers
#
variable N        equal 30   # Number of beads per polymer
variable Ny_val   equal 4    # Number of polymers placed in y
variable Ny       loop ${Ny_val}
variable Ny       loop 4
variable Nz       loop 3     # Number of polymers placed in z
variable dbead    equal 0.2  # Distance Between Beads
variable step     equal 1    # Step size for loop

# Initialise the first bead
variable x0 equal 1.0
variable y0 equal 1.0
variable z0 equal 2.0

# Create the remaining beads
label loop_z
label loop_y
label loop_bead
if "${step} > ${N}" then "jump SELF end_inner"
    variable x equal ${x0} + ${dbead}
    variable x equal 1 + ${dbead}
    variable x equal 1 + 0.2
    variable y equal ${y0} + 1.5*${Ny}
    variable y equal 1 + 1.5*${Ny}
    variable y equal 1 + 1.5*1
    variable z equal ${z0} + 1.5*${Nz}
    variable z equal 2 + 1.5*${Nz}
    variable z equal 2 + 1.5*1
    create_atoms 2 single ${x} ${y} ${z}
    create_atoms 2 single 1.2 ${y} ${z}
    create_atoms 2 single 1.2 2.5 ${z}
    create_atoms 2 single 1.2 2.5 3.5
Created 1 atoms
  using lattice units in orthogonal box = (0 0 0) to (92.831777 92.831777 92.831777)
  create_atoms CPU = 0.001 seconds
    variable x0 equal ${x}
    variable x0 equal 1.2
    variable step equal ${step} + 1
    variable step equal 1 + 1
jump SELF loop_bead
if "${step} > ${N}" then "jump SELF end_inner"
    variable x equal ${x0} + ${dbead}
    variable x equal 1.2 + ${dbead}
    variable x equal 1.2 + 0.2
    variable y equal ${y0} + 1.5*${Ny}
    variable y equal 1 + 1.5*${Ny}
    variable y equal 1 + 1.5*1
    variable z equal ${z0} + 1.5*${Nz}
    variable z equal 2 + 1.5*${Nz}
    variable z equal 2 + 1.5*1
    create_atoms 2 single ${x} ${y} ${z}
    create_atoms 2 single 1.4 ${y} ${z}
    create_atoms 2 single 1.4 2.5 ${z}
    create_atoms 2 single 1.4 2.5 3.5
Created 1 atoms
  using lattice units in orthogonal box = (0 0 0) to (92.831777 92.831777 92.831777)
  create_atoms CPU = 0.001 seconds
    variable x0 equal ${x}
    variable x0 equal 1.4
    variable step equal ${step} + 1
    variable step equal 2 + 1
jump SELF loop_bead
if "${step} > ${N}" then "jump SELF end_inner"
    variable x equal ${x0} + ${dbead}
    variable x equal 1.4 + ${dbead}
    variable x equal 1.4 + 0.2
    variable y equal ${y0} + 1.5*${Ny}
    variable y equal 1 + 1.5*${Ny}
    variable y equal 1 + 1.5*1
    variable z equal ${z0} + 1.5*${Nz}
    variable z equal 2 + 1.5*${Nz}
    variable z equal 2 + 1.5*1
    create_atoms 2 single ${x} ${y} ${z}
    create_atoms 2 single 1.6 ${y} ${z}
    create_atoms 2 single 1.6 2.5 ${z}
    create_atoms 2 single 1.6 2.5 3.5
Created 1 atoms
  using lattice units in orthogonal box = (0 0 0) to (92.831777 92.831777 92.831777)
  create_atoms CPU = 0.001 seconds
    variable x0 equal ${x}
    variable x0 equal 1.6
    variable step equal ${step} + 1
    variable step equal 3 + 1
jump SELF loop_bead
if "${step} > ${N}" then "jump SELF end_inner"
    variable x equal ${x0} + ${dbead}
    variable x equal 1.6 + ${dbead}
    variable x equal 1.6 + 0.2
    variable y equal ${y0} + 1.5*${Ny}
    variable y equal 1 + 1.5*${Ny}
    variable y equal 1 + 1.5*1
    variable z equal ${z0} + 1.5*${Nz}
    variable z equal 2 + 1.5*${Nz}
    variable z equal 2 + 1.5*1
    create_atoms 2 single ${x} ${y} ${z}
    create_atoms 2 single 1.8 ${y} ${z}
    create_atoms 2 single 1.8 2.5 ${z}
    create_atoms 2 single 1.8 2.5 3.5
Created 1 atoms
  using lattice units in orthogonal box = (0 0 0) to (92.831777 92.831777 92.831777)
  create_atoms CPU = 0.001 seconds
    variable x0 equal ${x}
    variable x0 equal 1.8
    variable step equal ${step} + 1
    variable step equal 4 + 1
jump SELF loop_bead
if "${step} > ${N}" then "jump SELF end_inner"
    variable x equal ${x0} + ${dbead}
    variable x equal 1.8 + ${dbead}
    variable x equal 1.8 + 0.2
    variable y equal ${y0} + 1.5*${Ny}
    variable y equal 1 + 1.5*${Ny}
    variable y equal 1 + 1.5*1
    variable z equal ${z0} + 1.5*${Nz}
    variable z equal 2 + 1.5*${Nz}
    variable z equal 2 + 1.5*1
    create_atoms 2 single ${x} ${y} ${z}
    create_atoms 2 single 2 ${y} ${z}
    create_atoms 2 single 2 2.5 ${z}
    create_atoms 2 single 2 2.5 3.5
Created 1 atoms
  using lattice units in orthogonal box = (0 0 0) to (92.831777 92.831777 92.831777)
  create_atoms CPU = 0.000 seconds
    variable x0 equal ${x}
    variable x0 equal 2
    variable step equal ${step} + 1
    variable step equal 5 + 1
jump SELF loop_bead
if "${step} > ${N}" then "jump SELF end_inner"
    variable x equal ${x0} + ${dbead}
    variable x equal 2 + ${dbead}
    variable x equal 2 + 0.2
    variable y equal ${y0} + 1.5*${Ny}
    variable y equal 1 + 1.5*${Ny}
    variable y equal 1 + 1.5*1
    variable z equal ${z0} + 1.5*${Nz}
    variable z equal 2 + 1.5*${Nz}
    variable z equal 2 + 1.5*1
    create_atoms 2 single ${x} ${y} ${z}
    create_atoms 2 single 2.2 ${y} ${z}
    create_atoms 2 single 2.2 2.5 ${z}
    create_atoms 2 single 2.2 2.5 3.5
Created 1 atoms
  using lattice units in orthogonal box = (0 0 0) to (92.831777 92.831777 92.831777)
  create_atoms CPU = 0.000 seconds
    variable x0 equal ${x}
    variable x0 equal 2.2
    variable step equal ${step} + 1
    variable step equal 6 + 1
jump SELF loop_bead
if "${step} > ${N}" then "jump SELF end_inner"
    variable x equal ${x0} + ${dbead}
    variable x equal 2.2 + ${dbead}
    variable x equal 2.2 + 0.2
    variable y equal ${y0} + 1.5*${Ny}
    variable y equal 1 + 1.5*${Ny}
    variable y equal 1 + 1.5*1
    variable z equal ${z0} + 1.5*${Nz}
    variable z equal 2 + 1.5*${Nz}
    variable z equal 2 + 1.5*1
    create_atoms 2 single ${x} ${y} ${z}
    create_atoms 2 single 2.4 ${y} ${z}
    create_atoms 2 single 2.4 2.5 ${z}
    create_atoms 2 single 2.4 2.5 3.5
Created 1 atoms
  using lattice units in orthogonal box = (0 0 0) to (92.831777 92.831777 92.831777)
  create_atoms CPU = 0.000 seconds
    variable x0 equal ${x}
    variable x0 equal 2.4
    variable step equal ${step} + 1
    variable step equal 7 + 1
jump SELF loop_bead
if "${step} > ${N}" then "jump SELF end_inner"
    variable x equal ${x0} + ${dbead}
    variable x equal 2.4 + ${dbead}
    variable x equal 2.4 + 0.2
    variable y equal ${y0} + 1.5*${Ny}
    variable y equal 1 + 1.5*${Ny}
    variable y equal 1 + 1.5*1
    variable z equal ${z0} + 1.5*${Nz}
    variable z equal 2 + 1.5*${Nz}
    variable z equal 2 + 1.5*1
    create_atoms 2 single ${x} ${y} ${z}
    create_atoms 2 single 2.6 ${y} ${z}
    create_atoms 2 single 2.6 2.5 ${z}
    create_atoms 2 single 2.6 2.5 3.5
Created 1 atoms
  using lattice units in orthogonal box = (0 0 0) to (92.831777 92.831777 92.831777)
  create_atoms CPU = 0.001 seconds
    variable x0 equal ${x}
    variable x0 equal 2.6
    variable step equal ${step} + 1
    variable step equal 8 + 1
jump SELF loop_bead
if "${step} > ${N}" then "jump SELF end_inner"
    variable x equal ${x0} + ${dbead}
    variable x equal 2.6 + ${dbead}
    variable x equal 2.6 + 0.2
    variable y equal ${y0} + 1.5*${Ny}
    variable y equal 1 + 1.5*${Ny}
    variable y equal 1 + 1.5*1
    variable z equal ${z0} + 1.5*${Nz}
    variable z equal 2 + 1.5*${Nz}
    variable z equal 2 + 1.5*1
    create_atoms 2 single ${x} ${y} ${z}
    create_atoms 2 single 2.8 ${y} ${z}
    create_atoms 2 single 2.8 2.5 ${z}
    create_atoms 2 single 2.8 2.5 3.5
Created 1 atoms
  using lattice units in orthogonal box = (0 0 0) to (92.831777 92.831777 92.831777)
  create_atoms CPU = 0.000 seconds
    variable x0 equal ${x}
    variable x0 equal 2.8
    variable step equal ${step} + 1
    variable step equal 9 + 1
jump SELF loop_bead
if "${step} > ${N}" then "jump SELF end_inner"
    variable x equal ${x0} + ${dbead}
    variable x equal 2.8 + ${dbead}
    variable x equal 2.8 + 0.2
    variable y equal ${y0} + 1.5*${Ny}
    variable y equal 1 + 1.5*${Ny}
    variable y equal 1 + 1.5*1
    variable z equal ${z0} + 1.5*${Nz}
    variable z equal 2 + 1.5*${Nz}
    variable z equal 2 + 1.5*1
    create_atoms 2 single ${x} ${y} ${z}
    create_atoms 2 single 3 ${y} ${z}
    create_atoms 2 single 3 2.5 ${z}
    create_atoms 2 single 3 2.5 3.5
Created 1 atoms
  using lattice units in orthogonal box = (0 0 0) to (92.831777 92.831777 92.831777)
  create_atoms CPU = 0.001 seconds
    variable x0 equal ${x}
    variable x0 equal 3
    variable step equal ${step} + 1
    variable step equal 10 + 1
jump SELF loop_bead
if "${step} > ${N}" then "jump SELF end_inner"
    variable x equal ${x0} + ${dbead}
    variable x equal 3 + ${dbead}
    variable x equal 3 + 0.2
    variable y equal ${y0} + 1.5*${Ny}
    variable y equal 1 + 1.5*${Ny}
    variable y equal 1 + 1.5*1
    variable z equal ${z0} + 1.5*${Nz}
    variable z equal 2 + 1.5*${Nz}
    variable z equal 2 + 1.5*1
    create_atoms 2 single ${x} ${y} ${z}
    create_atoms 2 single 3.2 ${y} ${z}
    create_atoms 2 single 3.2 2.5 ${z}
    create_atoms 2 single 3.2 2.5 3.5
Created 1 atoms
  using lattice units in orthogonal box = (0 0 0) to (92.831777 92.831777 92.831777)
  create_atoms CPU = 0.000 seconds
    variable x0 equal ${x}
    variable x0 equal 3.2
    variable step equal ${step} + 1
    variable step equal 11 + 1
jump SELF loop_bead
if "${step} > ${N}" then "jump SELF end_inner"
    variable x equal ${x0} + ${dbead}
    variable x equal 3.2 + ${dbead}
    variable x equal 3.2 + 0.2
    variable y equal ${y0} + 1.5*${Ny}
    variable y equal 1 + 1.5*${Ny}
    variable y equal 1 + 1.5*1
    variable z equal ${z0} + 1.5*${Nz}
    variable z equal 2 + 1.5*${Nz}
    variable z equal 2 + 1.5*1
    create_atoms 2 single ${x} ${y} ${z}
    create_atoms 2 single 3.4 ${y} ${z}
    create_atoms 2 single 3.4 2.5 ${z}
    create_atoms 2 single 3.4 2.5 3.5
Created 1 atoms
  using lattice units in orthogonal box = (0 0 0) to (92.831777 92.831777 92.831777)
  create_atoms CPU = 0.001 seconds
    variable x0 equal ${x}
    variable x0 equal 3.4
    variable step equal ${step} + 1
    variable step equal 12 + 1
jump SELF loop_bead
if "${step} > ${N}" then "jump SELF end_inner"
    variable x equal ${x0} + ${dbead}
    variable x equal 3.4 + ${dbead}
    variable x equal 3.4 + 0.2
    variable y equal ${y0} + 1.5*${Ny}
    variable y equal 1 + 1.5*${Ny}
    variable y equal 1 + 1.5*1
    variable z equal ${z0} + 1.5*${Nz}
    variable z equal 2 + 1.5*${Nz}
    variable z equal 2 + 1.5*1
    create_atoms 2 single ${x} ${y} ${z}
    create_atoms 2 single 3.6 ${y} ${z}
    create_atoms 2 single 3.6 2.5 ${z}
    create_atoms 2 single 3.6 2.5 3.5
Created 1 atoms
  using lattice units in orthogonal box = (0 0 0) to (92.831777 92.831777 92.831777)
  create_atoms CPU = 0.000 seconds
    variable x0 equal ${x}
    variable x0 equal 3.6
    variable step equal ${step} + 1
    variable step equal 13 + 1
jump SELF loop_bead
if "${step} > ${N}" then "jump SELF end_inner"
    variable x equal ${x0} + ${dbead}
    variable x equal 3.6 + ${dbead}
    variable x equal 3.6 + 0.2
    variable y equal ${y0} + 1.5*${Ny}
    variable y equal 1 + 1.5*${Ny}
    variable y equal 1 + 1.5*1
    variable z equal ${z0} + 1.5*${Nz}
    variable z equal 2 + 1.5*${Nz}
    variable z equal 2 + 1.5*1
    create_atoms 2 single ${x} ${y} ${z}
    create_atoms 2 single 3.8 ${y} ${z}
    create_atoms 2 single 3.8 2.5 ${z}
    create_atoms 2 single 3.8 2.5 3.5
Created 1 atoms
  using lattice units in orthogonal box = (0 0 0) to (92.831777 92.831777 92.831777)
  create_atoms CPU = 0.001 seconds
    variable x0 equal ${x}
    variable x0 equal 3.8
    variable step equal ${step} + 1
    variable step equal 14 + 1
jump SELF loop_bead
if "${step} > ${N}" then "jump SELF end_inner"
    variable x equal ${x0} + ${dbead}
    variable x equal 3.8 + ${dbead}
    variable x equal 3.8 + 0.2
    variable y equal ${y0} + 1.5*${Ny}
    variable y equal 1 + 1.5*${Ny}
    variable y equal 1 + 1.5*1
    variable z equal ${z0} + 1.5*${Nz}
    variable z equal 2 + 1.5*${Nz}
    variable z equal 2 + 1.5*1
    create_atoms 2 single ${x} ${y} ${z}
    create_atoms 2 single 4 ${y} ${z}
    create_atoms 2 single 4 2.5 ${z}
    create_atoms 2 single 4 2.5 3.5
Created 1 atoms
  using lattice units in orthogonal box = (0 0 0) to (92.831777 92.831777 92.831777)
  create_atoms CPU = 0.000 seconds
    variable x0 equal ${x}
    variable x0 equal 4
    variable step equal ${step} + 1
    variable step equal 15 + 1
jump SELF loop_bead
if "${step} > ${N}" then "jump SELF end_inner"
    variable x equal ${x0} + ${dbead}
    variable x equal 4 + ${dbead}
    variable x equal 4 + 0.2
    variable y equal ${y0} + 1.5*${Ny}
    variable y equal 1 + 1.5*${Ny}
    variable y equal 1 + 1.5*1
    variable z equal ${z0} + 1.5*${Nz}
    variable z equal 2 + 1.5*${Nz}
    variable z equal 2 + 1.5*1
    create_atoms 2 single ${x} ${y} ${z}
    create_atoms 2 single 4.2 ${y} ${z}
    create_atoms 2 single 4.2 2.5 ${z}
    create_atoms 2 single 4.2 2.5 3.5
Created 1 atoms
  using lattice units in orthogonal box = (0 0 0) to (92.831777 92.831777 92.831777)
  create_atoms CPU = 0.000 seconds
    variable x0 equal ${x}
    variable x0 equal 4.2
    variable step equal ${step} + 1
    variable step equal 16 + 1
jump SELF loop_bead
if "${step} > ${N}" then "jump SELF end_inner"
    variable x equal ${x0} + ${dbead}
    variable x equal 4.2 + ${dbead}
    variable x equal 4.2 + 0.2
    variable y equal ${y0} + 1.5*${Ny}
    variable y equal 1 + 1.5*${Ny}
    variable y equal 1 + 1.5*1
    variable z equal ${z0} + 1.5*${Nz}
    variable z equal 2 + 1.5*${Nz}
    variable z equal 2 + 1.5*1
    create_atoms 2 single ${x} ${y} ${z}
    create_atoms 2 single 4.4 ${y} ${z}
    create_atoms 2 single 4.4 2.5 ${z}
    create_atoms 2 single 4.4 2.5 3.5
Created 1 atoms
  using lattice units in orthogonal box = (0 0 0) to (92.831777 92.831777 92.831777)
  create_atoms CPU = 0.001 seconds
    variable x0 equal ${x}
    variable x0 equal 4.4
    variable step equal ${step} + 1
    variable step equal 17 + 1
jump SELF loop_bead
if "${step} > ${N}" then "jump SELF end_inner"
    variable x equal ${x0} + ${dbead}
    variable x equal 4.4 + ${dbead}
    variable x equal 4.4 + 0.2
    variable y equal ${y0} + 1.5*${Ny}
    variable y equal 1 + 1.5*${Ny}
    variable y equal 1 + 1.5*1
    variable z equal ${z0} + 1.5*${Nz}
    variable z equal 2 + 1.5*${Nz}
    variable z equal 2 + 1.5*1
    create_atoms 2 single ${x} ${y} ${z}
    create_atoms 2 single 4.6 ${y} ${z}
    create_atoms 2 single 4.6 2.5 ${z}
    create_atoms 2 single 4.6 2.5 3.5
Created 1 atoms
  using lattice units in orthogonal box = (0 0 0) to (92.831777 92.831777 92.831777)
  create_atoms CPU = 0.000 seconds
    variable x0 equal ${x}
    variable x0 equal 4.6
    variable step equal ${step} + 1
    variable step equal 18 + 1
jump SELF loop_bead
if "${step} > ${N}" then "jump SELF end_inner"
    variable x equal ${x0} + ${dbead}
    variable x equal 4.6 + ${dbead}
    variable x equal 4.6 + 0.2
    variable y equal ${y0} + 1.5*${Ny}
    variable y equal 1 + 1.5*${Ny}
    variable y equal 1 + 1.5*1
    variable z equal ${z0} + 1.5*${Nz}
    variable z equal 2 + 1.5*${Nz}
    variable z equal 2 + 1.5*1
    create_atoms 2 single ${x} ${y} ${z}
    create_atoms 2 single 4.8 ${y} ${z}
    create_atoms 2 single 4.8 2.5 ${z}
    create_atoms 2 single 4.8 2.5 3.5
Created 1 atoms
  using lattice units in orthogonal box = (0 0 0) to (92.831777 92.831777 92.831777)
  create_atoms CPU = 0.001 seconds
    variable x0 equal ${x}
    variable x0 equal 4.8
    variable step equal ${step} + 1
    variable step equal 19 + 1
jump SELF loop_bead
if "${step} > ${N}" then "jump SELF end_inner"
    variable x equal ${x0} + ${dbead}
    variable x equal 4.8 + ${dbead}
    variable x equal 4.8 + 0.2
    variable y equal ${y0} + 1.5*${Ny}
    variable y equal 1 + 1.5*${Ny}
    variable y equal 1 + 1.5*1
    variable z equal ${z0} + 1.5*${Nz}
    variable z equal 2 + 1.5*${Nz}
    variable z equal 2 + 1.5*1
    create_atoms 2 single ${x} ${y} ${z}
    create_atoms 2 single 5 ${y} ${z}
    create_atoms 2 single 5 2.5 ${z}
    create_atoms 2 single 5 2.5 3.5
Created 1 atoms
  using lattice units in orthogonal box = (0 0 0) to (92.831777 92.831777 92.831777)
  create_atoms CPU = 0.000 seconds
    variable x0 equal ${x}
    variable x0 equal 5
    variable step equal ${step} + 1
    variable step equal 20 + 1
jump SELF loop_bead
if "${step} > ${N}" then "jump SELF end_inner"
    variable x equal ${x0} + ${dbead}
    variable x equal 5 + ${dbead}
    variable x equal 5 + 0.2
    variable y equal ${y0} + 1.5*${Ny}
    variable y equal 1 + 1.5*${Ny}
    variable y equal 1 + 1.5*1
    variable z equal ${z0} + 1.5*${Nz}
    variable z equal 2 + 1.5*${Nz}
    variable z equal 2 + 1.5*1
    create_atoms 2 single ${x} ${y} ${z}
    create_atoms 2 single 5.2 ${y} ${z}
    create_atoms 2 single 5.2 2.5 ${z}
    create_atoms 2 single 5.2 2.5 3.5
Created 1 atoms
  using lattice units in orthogonal box = (0 0 0) to (92.831777 92.831777 92.831777)
  create_atoms CPU = 0.001 seconds
    variable x0 equal ${x}
    variable x0 equal 5.2
    variable step equal ${step} + 1
    variable step equal 21 + 1
jump SELF loop_bead
if "${step} > ${N}" then "jump SELF end_inner"
    variable x equal ${x0} + ${dbead}
    variable x equal 5.2 + ${dbead}
    variable x equal 5.2 + 0.2
    variable y equal ${y0} + 1.5*${Ny}
    variable y equal 1 + 1.5*${Ny}
    variable y equal 1 + 1.5*1
    variable z equal ${z0} + 1.5*${Nz}
    variable z equal 2 + 1.5*${Nz}
    variable z equal 2 + 1.5*1
    create_atoms 2 single ${x} ${y} ${z}
    create_atoms 2 single 5.4 ${y} ${z}
    create_atoms 2 single 5.4 2.5 ${z}
    create_atoms 2 single 5.4 2.5 3.5
Created 1 atoms
  using lattice units in orthogonal box = (0 0 0) to (92.831777 92.831777 92.831777)
  create_atoms CPU = 0.000 seconds
    variable x0 equal ${x}
    variable x0 equal 5.4
    variable step equal ${step} + 1
    variable step equal 22 + 1
jump SELF loop_bead
if "${step} > ${N}" then "jump SELF end_inner"
    variable x equal ${x0} + ${dbead}
    variable x equal 5.4 + ${dbead}
    variable x equal 5.4 + 0.2
    variable y equal ${y0} + 1.5*${Ny}
    variable y equal 1 + 1.5*${Ny}
    variable y equal 1 + 1.5*1
    variable z equal ${z0} + 1.5*${Nz}
    variable z equal 2 + 1.5*${Nz}
    variable z equal 2 + 1.5*1
    create_atoms 2 single ${x} ${y} ${z}
    create_atoms 2 single 5.6 ${y} ${z}
    create_atoms 2 single 5.6 2.5 ${z}
    create_atoms 2 single 5.6 2.5 3.5
Created 1 atoms
  using lattice units in orthogonal box = (0 0 0) to (92.831777 92.831777 92.831777)
  create_atoms CPU = 0.000 seconds
    variable x0 equal ${x}
    variable x0 equal 5.6
    variable step equal ${step} + 1
    variable step equal 23 + 1
jump SELF loop_bead
if "${step} > ${N}" then "jump SELF end_inner"
    variable x equal ${x0} + ${dbead}
    variable x equal 5.6 + ${dbead}
    variable x equal 5.6 + 0.2
    variable y equal ${y0} + 1.5*${Ny}
    variable y equal 1 + 1.5*${Ny}
    variable y equal 1 + 1.5*1
    variable z equal ${z0} + 1.5*${Nz}
    variable z equal 2 + 1.5*${Nz}
    variable z equal 2 + 1.5*1
    create_atoms 2 single ${x} ${y} ${z}
    create_atoms 2 single 5.8 ${y} ${z}
    create_atoms 2 single 5.8 2.5 ${z}
    create_atoms 2 single 5.8 2.5 3.5
Created 1 atoms
  using lattice units in orthogonal box = (0 0 0) to (92.831777 92.831777 92.831777)
  create_atoms CPU = 0.001 seconds
    variable x0 equal ${x}
    variable x0 equal 5.8
    variable step equal ${step} + 1
    variable step equal 24 + 1
jump SELF loop_bead
if "${step} > ${N}" then "jump SELF end_inner"
    variable x equal ${x0} + ${dbead}
    variable x equal 5.8 + ${dbead}
    variable x equal 5.8 + 0.2
    variable y equal ${y0} + 1.5*${Ny}
    variable y equal 1 + 1.5*${Ny}
    variable y equal 1 + 1.5*1
    variable z equal ${z0} + 1.5*${Nz}
    variable z equal 2 + 1.5*${Nz}
    variable z equal 2 + 1.5*1
    create_atoms 2 single ${x} ${y} ${z}
    create_atoms 2 single 6 ${y} ${z}
    create_atoms 2 single 6 2.5 ${z}
    create_atoms 2 single 6 2.5 3.5
Created 1 atoms
  using lattice units in orthogonal box = (0 0 0) to (92.831777 92.831777 92.831777)
  create_atoms CPU = 0.000 seconds
    variable x0 equal ${x}
    variable x0 equal 6
    variable step equal ${step} + 1
    variable step equal 25 + 1
jump SELF loop_bead
if "${step} > ${N}" then "jump SELF end_inner"
    variable x equal ${x0} + ${dbead}
    variable x equal 6 + ${dbead}
    variable x equal 6 + 0.2
    variable y equal ${y0} + 1.5*${Ny}
    variable y equal 1 + 1.5*${Ny}
    variable y equal 1 + 1.5*1
    variable z equal ${z0} + 1.5*${Nz}
    variable z equal 2 + 1.5*${Nz}
    variable z equal 2 + 1.5*1
    create_atoms 2 single ${x} ${y} ${z}
    create_atoms 2 single 6.2 ${y} ${z}
    create_atoms 2 single 6.2 2.5 ${z}
    create_atoms 2 single 6.2 2.5 3.5
Created 1 atoms
  using lattice units in orthogonal box = (0 0 0) to (92.831777 92.831777 92.831777)
  create_atoms CPU = 0.000 seconds
    variable x0 equal ${x}
    variable x0 equal 6.2
    variable step equal ${step} + 1
    variable step equal 26 + 1
jump SELF loop_bead
if "${step} > ${N}" then "jump SELF end_inner"
    variable x equal ${x0} + ${dbead}
    variable x equal 6.2 + ${dbead}
    variable x equal 6.2 + 0.2
    variable y equal ${y0} + 1.5*${Ny}
    variable y equal 1 + 1.5*${Ny}
    variable y equal 1 + 1.5*1
    variable z equal ${z0} + 1.5*${Nz}
    variable z equal 2 + 1.5*${Nz}
    variable z equal 2 + 1.5*1
    create_atoms 2 single ${x} ${y} ${z}
    create_atoms 2 single 6.4 ${y} ${z}
    create_atoms 2 single 6.4 2.5 ${z}
    create_atoms 2 single 6.4 2.5 3.5
Created 1 atoms
  using lattice units in orthogonal box = (0 0 0) to (92.831777 92.831777 92.831777)
  create_atoms CPU = 0.000 seconds
    variable x0 equal ${x}
    variable x0 equal 6.4
    variable step equal ${step} + 1
    variable step equal 27 + 1
jump SELF loop_bead
if "${step} > ${N}" then "jump SELF end_inner"
    variable x equal ${x0} + ${dbead}
    variable x equal 6.4 + ${dbead}
    variable x equal 6.4 + 0.2
    variable y equal ${y0} + 1.5*${Ny}
    variable y equal 1 + 1.5*${Ny}
    variable y equal 1 + 1.5*1
    variable z equal ${z0} + 1.5*${Nz}
    variable z equal 2 + 1.5*${Nz}
    variable z equal 2 + 1.5*1
    create_atoms 2 single ${x} ${y} ${z}
    create_atoms 2 single 6.6 ${y} ${z}
    create_atoms 2 single 6.6 2.5 ${z}
    create_atoms 2 single 6.6 2.5 3.5
Created 1 atoms
  using lattice units in orthogonal box = (0 0 0) to (92.831777 92.831777 92.831777)
  create_atoms CPU = 0.000 seconds
    variable x0 equal ${x}
    variable x0 equal 6.6
    variable step equal ${step} + 1
    variable step equal 28 + 1
jump SELF loop_bead
if "${step} > ${N}" then "jump SELF end_inner"
    variable x equal ${x0} + ${dbead}
    variable x equal 6.6 + ${dbead}
    variable x equal 6.6 + 0.2
    variable y equal ${y0} + 1.5*${Ny}
    variable y equal 1 + 1.5*${Ny}
    variable y equal 1 + 1.5*1
    variable z equal ${z0} + 1.5*${Nz}
    variable z equal 2 + 1.5*${Nz}
    variable z equal 2 + 1.5*1
    create_atoms 2 single ${x} ${y} ${z}
    create_atoms 2 single 6.8 ${y} ${z}
    create_atoms 2 single 6.8 2.5 ${z}
    create_atoms 2 single 6.8 2.5 3.5
Created 1 atoms
  using lattice units in orthogonal box = (0 0 0) to (92.831777 92.831777 92.831777)
  create_atoms CPU = 0.000 seconds
    variable x0 equal ${x}
    variable x0 equal 6.8
    variable step equal ${step} + 1
    variable step equal 29 + 1
jump SELF loop_bead
if "${step} > ${N}" then "jump SELF end_inner"
    variable x equal ${x0} + ${dbead}
    variable x equal 6.8 + ${dbead}
    variable x equal 6.8 + 0.2
    variable y equal ${y0} + 1.5*${Ny}
    variable y equal 1 + 1.5*${Ny}
    variable y equal 1 + 1.5*1
    variable z equal ${z0} + 1.5*${Nz}
    variable z equal 2 + 1.5*${Nz}
    variable z equal 2 + 1.5*1
    create_atoms 2 single ${x} ${y} ${z}
    create_atoms 2 single 7 ${y} ${z}
    create_atoms 2 single 7 2.5 ${z}
    create_atoms 2 single 7 2.5 3.5
Created 1 atoms
  using lattice units in orthogonal box = (0 0 0) to (92.831777 92.831777 92.831777)
  create_atoms CPU = 0.000 seconds
    variable x0 equal ${x}
    variable x0 equal 7
    variable step equal ${step} + 1
    variable step equal 30 + 1
jump SELF loop_bead
if "${step} > ${N}" then "jump SELF end_inner"
jump SELF end_inner
variable x0 equal 1.0
variable y0 equal 1.0
variable step equal 1
next Ny
jump SELF loop_y
label loop_bead
if "${step} > ${N}" then "jump SELF end_inner"
    variable x equal ${x0} + ${dbead}
    variable x equal 1 + ${dbead}
    variable x equal 1 + 0.2
    variable y equal ${y0} + 1.5*${Ny}
    variable y equal 1 + 1.5*${Ny}
    variable y equal 1 + 1.5*2
    variable z equal ${z0} + 1.5*${Nz}
    variable z equal 2 + 1.5*${Nz}
    variable z equal 2 + 1.5*1
    create_atoms 2 single ${x} ${y} ${z}
    create_atoms 2 single 1.2 ${y} ${z}
    create_atoms 2 single 1.2 4 ${z}
    create_atoms 2 single 1.2 4 3.5
Created 1 atoms
  using lattice units in orthogonal box = (0 0 0) to (92.831777 92.831777 92.831777)
  create_atoms CPU = 0.000 seconds
    variable x0 equal ${x}
    variable x0 equal 1.2
    variable step equal ${step} + 1
    variable step equal 1 + 1
jump SELF loop_bead
if "${step} > ${N}" then "jump SELF end_inner"
    variable x equal ${x0} + ${dbead}
    variable x equal 1.2 + ${dbead}
    variable x equal 1.2 + 0.2
    variable y equal ${y0} + 1.5*${Ny}
    variable y equal 1 + 1.5*${Ny}
    variable y equal 1 + 1.5*2
    variable z equal ${z0} + 1.5*${Nz}
    variable z equal 2 + 1.5*${Nz}
    variable z equal 2 + 1.5*1
    create_atoms 2 single ${x} ${y} ${z}
    create_atoms 2 single 1.4 ${y} ${z}
    create_atoms 2 single 1.4 4 ${z}
    create_atoms 2 single 1.4 4 3.5
Created 1 atoms
  using lattice units in orthogonal box = (0 0 0) to (92.831777 92.831777 92.831777)
  create_atoms CPU = 0.000 seconds
    variable x0 equal ${x}
    variable x0 equal 1.4
    variable step equal ${step} + 1
    variable step equal 2 + 1
jump SELF loop_bead
if "${step} > ${N}" then "jump SELF end_inner"
    variable x equal ${x0} + ${dbead}
    variable x equal 1.4 + ${dbead}
    variable x equal 1.4 + 0.2
    variable y equal ${y0} + 1.5*${Ny}
    variable y equal 1 + 1.5*${Ny}
    variable y equal 1 + 1.5*2
    variable z equal ${z0} + 1.5*${Nz}
    variable z equal 2 + 1.5*${Nz}
    variable z equal 2 + 1.5*1
    create_atoms 2 single ${x} ${y} ${z}
    create_atoms 2 single 1.6 ${y} ${z}
    create_atoms 2 single 1.6 4 ${z}
    create_atoms 2 single 1.6 4 3.5
Created 1 atoms
  using lattice units in orthogonal box = (0 0 0) to (92.831777 92.831777 92.831777)
  create_atoms CPU = 0.000 seconds
    variable x0 equal ${x}
    variable x0 equal 1.6
    variable step equal ${step} + 1
    variable step equal 3 + 1
jump SELF loop_bead
if "${step} > ${N}" then "jump SELF end_inner"
    variable x equal ${x0} + ${dbead}
    variable x equal 1.6 + ${dbead}
    variable x equal 1.6 + 0.2
    variable y equal ${y0} + 1.5*${Ny}
    variable y equal 1 + 1.5*${Ny}
    variable y equal 1 + 1.5*2
    variable z equal ${z0} + 1.5*${Nz}
    variable z equal 2 + 1.5*${Nz}
    variable z equal 2 + 1.5*1
    create_atoms 2 single ${x} ${y} ${z}
    create_atoms 2 single 1.8 ${y} ${z}
    create_atoms 2 single 1.8 4 ${z}
    create_atoms 2 single 1.8 4 3.5
Created 1 atoms
  using lattice units in orthogonal box = (0 0 0) to (92.831777 92.831777 92.831777)
  create_atoms CPU = 0.000 seconds
    variable x0 equal ${x}
    variable x0 equal 1.8
    variable step equal ${step} + 1
    variable step equal 4 + 1
jump SELF loop_bead
if "${step} > ${N}" then "jump SELF end_inner"
    variable x equal ${x0} + ${dbead}
    variable x equal 1.8 + ${dbead}
    variable x equal 1.8 + 0.2
    variable y equal ${y0} + 1.5*${Ny}
    variable y equal 1 + 1.5*${Ny}
    variable y equal 1 + 1.5*2
    variable z equal ${z0} + 1.5*${Nz}
    variable z equal 2 + 1.5*${Nz}
    variable z equal 2 + 1.5*1
    create_atoms 2 single ${x} ${y} ${z}
    create_atoms 2 single 2 ${y} ${z}
    create_atoms 2 single 2 4 ${z}
    create_atoms 2 single 2 4 3.5
Created 1 atoms
  using lattice units in orthogonal box = (0 0 0) to (92.831777 92.831777 92.831777)
  create_atoms CPU = 0.000 seconds
    variable x0 equal ${x}
    variable x0 equal 2
    variable step equal ${step} + 1
    variable step equal 5 + 1
jump SELF loop_bead
if "${step} > ${N}" then "jump SELF end_inner"
    variable x equal ${x0} + ${dbead}
    variable x equal 2 + ${dbead}
    variable x equal 2 + 0.2
    variable y equal ${y0} + 1.5*${Ny}
    variable y equal 1 + 1.5*${Ny}
    variable y equal 1 + 1.5*2
    variable z equal ${z0} + 1.5*${Nz}
    variable z equal 2 + 1.5*${Nz}
    variable z equal 2 + 1.5*1
    create_atoms 2 single ${x} ${y} ${z}
    create_atoms 2 single 2.2 ${y} ${z}
    create_atoms 2 single 2.2 4 ${z}
    create_atoms 2 single 2.2 4 3.5
Created 1 atoms
  using lattice units in orthogonal box = (0 0 0) to (92.831777 92.831777 92.831777)
  create_atoms CPU = 0.000 seconds
    variable x0 equal ${x}
    variable x0 equal 2.2
    variable step equal ${step} + 1
    variable step equal 6 + 1
jump SELF loop_bead
if "${step} > ${N}" then "jump SELF end_inner"
    variable x equal ${x0} + ${dbead}
    variable x equal 2.2 + ${dbead}
    variable x equal 2.2 + 0.2
    variable y equal ${y0} + 1.5*${Ny}
    variable y equal 1 + 1.5*${Ny}
    variable y equal 1 + 1.5*2
    variable z equal ${z0} + 1.5*${Nz}
    variable z equal 2 + 1.5*${Nz}
    variable z equal 2 + 1.5*1
    create_atoms 2 single ${x} ${y} ${z}
    create_atoms 2 single 2.4 ${y} ${z}
    create_atoms 2 single 2.4 4 ${z}
    create_atoms 2 single 2.4 4 3.5
Created 1 atoms
  using lattice units in orthogonal box = (0 0 0) to (92.831777 92.831777 92.831777)
  create_atoms CPU = 0.000 seconds
    variable x0 equal ${x}
    variable x0 equal 2.4
    variable step equal ${step} + 1
    variable step equal 7 + 1
jump SELF loop_bead
if "${step} > ${N}" then "jump SELF end_inner"
    variable x equal ${x0} + ${dbead}
    variable x equal 2.4 + ${dbead}
    variable x equal 2.4 + 0.2
    variable y equal ${y0} + 1.5*${Ny}
    variable y equal 1 + 1.5*${Ny}
    variable y equal 1 + 1.5*2
    variable z equal ${z0} + 1.5*${Nz}
    variable z equal 2 + 1.5*${Nz}
    variable z equal 2 + 1.5*1
    create_atoms 2 single ${x} ${y} ${z}
    create_atoms 2 single 2.6 ${y} ${z}
    create_atoms 2 single 2.6 4 ${z}
    create_atoms 2 single 2.6 4 3.5
Created 1 atoms
  using lattice units in orthogonal box = (0 0 0) to (92.831777 92.831777 92.831777)
  create_atoms CPU = 0.000 seconds
    variable x0 equal ${x}
    variable x0 equal 2.6
    variable step equal ${step} + 1
    variable step equal 8 + 1
jump SELF loop_bead
if "${step} > ${N}" then "jump SELF end_inner"
    variable x equal ${x0} + ${dbead}
    variable x equal 2.6 + ${dbead}
    variable x equal 2.6 + 0.2
    variable y equal ${y0} + 1.5*${Ny}
    variable y equal 1 + 1.5*${Ny}
    variable y equal 1 + 1.5*2
    variable z equal ${z0} + 1.5*${Nz}
    variable z equal 2 + 1.5*${Nz}
    variable z equal 2 + 1.5*1
    create_atoms 2 single ${x} ${y} ${z}
    create_atoms 2 single 2.8 ${y} ${z}
    create_atoms 2 single 2.8 4 ${z}
    create_atoms 2 single 2.8 4 3.5
Created 1 atoms
  using lattice units in orthogonal box = (0 0 0) to (92.831777 92.831777 92.831777)
  create_atoms CPU = 0.000 seconds
    variable x0 equal ${x}
    variable x0 equal 2.8
    variable step equal ${step} + 1
    variable step equal 9 + 1
jump SELF loop_bead
if "${step} > ${N}" then "jump SELF end_inner"
    variable x equal ${x0} + ${dbead}
    variable x equal 2.8 + ${dbead}
    variable x equal 2.8 + 0.2
    variable y equal ${y0} + 1.5*${Ny}
    variable y equal 1 + 1.5*${Ny}
    variable y equal 1 + 1.5*2
    variable z equal ${z0} + 1.5*${Nz}
    variable z equal 2 + 1.5*${Nz}
    variable z equal 2 + 1.5*1
    create_atoms 2 single ${x} ${y} ${z}
    create_atoms 2 single 3 ${y} ${z}
    create_atoms 2 single 3 4 ${z}
    create_atoms 2 single 3 4 3.5
Created 1 atoms
  using lattice units in orthogonal box = (0 0 0) to (92.831777 92.831777 92.831777)
  create_atoms CPU = 0.000 seconds
    variable x0 equal ${x}
    variable x0 equal 3
    variable step equal ${step} + 1
    variable step equal 10 + 1
jump SELF loop_bead
if "${step} > ${N}" then "jump SELF end_inner"
    variable x equal ${x0} + ${dbead}
    variable x equal 3 + ${dbead}
    variable x equal 3 + 0.2
    variable y equal ${y0} + 1.5*${Ny}
    variable y equal 1 + 1.5*${Ny}
    variable y equal 1 + 1.5*2
    variable z equal ${z0} + 1.5*${Nz}
    variable z equal 2 + 1.5*${Nz}
    variable z equal 2 + 1.5*1
    create_atoms 2 single ${x} ${y} ${z}
    create_atoms 2 single 3.2 ${y} ${z}
    create_atoms 2 single 3.2 4 ${z}
    create_atoms 2 single 3.2 4 3.5
Created 1 atoms
  using lattice units in orthogonal box = (0 0 0) to (92.831777 92.831777 92.831777)
  create_atoms CPU = 0.000 seconds
    variable x0 equal ${x}
    variable x0 equal 3.2
    variable step equal ${step} + 1
    variable step equal 11 + 1
jump SELF loop_bead
if "${step} > ${N}" then "jump SELF end_inner"
    variable x equal ${x0} + ${dbead}
    variable x equal 3.2 + ${dbead}
    variable x equal 3.2 + 0.2
    variable y equal ${y0} + 1.5*${Ny}
    variable y equal 1 + 1.5*${Ny}
    variable y equal 1 + 1.5*2
    variable z equal ${z0} + 1.5*${Nz}
    variable z equal 2 + 1.5*${Nz}
    variable z equal 2 + 1.5*1
    create_atoms 2 single ${x} ${y} ${z}
    create_atoms 2 single 3.4 ${y} ${z}
    create_atoms 2 single 3.4 4 ${z}
    create_atoms 2 single 3.4 4 3.5
Created 1 atoms
  using lattice units in orthogonal box = (0 0 0) to (92.831777 92.831777 92.831777)
  create_atoms CPU = 0.000 seconds
    variable x0 equal ${x}
    variable x0 equal 3.4
    variable step equal ${step} + 1
    variable step equal 12 + 1
jump SELF loop_bead
if "${step} > ${N}" then "jump SELF end_inner"
    variable x equal ${x0} + ${dbead}
    variable x equal 3.4 + ${dbead}
    variable x equal 3.4 + 0.2
    variable y equal ${y0} + 1.5*${Ny}
    variable y equal 1 + 1.5*${Ny}
    variable y equal 1 + 1.5*2
    variable z equal ${z0} + 1.5*${Nz}
    variable z equal 2 + 1.5*${Nz}
    variable z equal 2 + 1.5*1
    create_atoms 2 single ${x} ${y} ${z}
    create_atoms 2 single 3.6 ${y} ${z}
    create_atoms 2 single 3.6 4 ${z}
    create_atoms 2 single 3.6 4 3.5
Created 1 atoms
  using lattice units in orthogonal box = (0 0 0) to (92.831777 92.831777 92.831777)
  create_atoms CPU = 0.000 seconds
    variable x0 equal ${x}
    variable x0 equal 3.6
    variable step equal ${step} + 1
    variable step equal 13 + 1
jump SELF loop_bead
if "${step} > ${N}" then "jump SELF end_inner"
    variable x equal ${x0} + ${dbead}
    variable x equal 3.6 + ${dbead}
    variable x equal 3.6 + 0.2
    variable y equal ${y0} + 1.5*${Ny}
    variable y equal 1 + 1.5*${Ny}
    variable y equal 1 + 1.5*2
    variable z equal ${z0} + 1.5*${Nz}
    variable z equal 2 + 1.5*${Nz}
    variable z equal 2 + 1.5*1
    create_atoms 2 single ${x} ${y} ${z}
    create_atoms 2 single 3.8 ${y} ${z}
    create_atoms 2 single 3.8 4 ${z}
    create_atoms 2 single 3.8 4 3.5
Created 1 atoms
  using lattice units in orthogonal box = (0 0 0) to (92.831777 92.831777 92.831777)
  create_atoms CPU = 0.000 seconds
    variable x0 equal ${x}
    variable x0 equal 3.8
    variable step equal ${step} + 1
    variable step equal 14 + 1
jump SELF loop_bead
if "${step} > ${N}" then "jump SELF end_inner"
    variable x equal ${x0} + ${dbead}
    variable x equal 3.8 + ${dbead}
    variable x equal 3.8 + 0.2
    variable y equal ${y0} + 1.5*${Ny}
    variable y equal 1 + 1.5*${Ny}
    variable y equal 1 + 1.5*2
    variable z equal ${z0} + 1.5*${Nz}
    variable z equal 2 + 1.5*${Nz}
    variable z equal 2 + 1.5*1
    create_atoms 2 single ${x} ${y} ${z}
    create_atoms 2 single 4 ${y} ${z}
    create_atoms 2 single 4 4 ${z}
    create_atoms 2 single 4 4 3.5
Created 1 atoms
  using lattice units in orthogonal box = (0 0 0) to (92.831777 92.831777 92.831777)
  create_atoms CPU = 0.000 seconds
    variable x0 equal ${x}
    variable x0 equal 4
    variable step equal ${step} + 1
    variable step equal 15 + 1
jump SELF loop_bead
if "${step} > ${N}" then "jump SELF end_inner"
    variable x equal ${x0} + ${dbead}
    variable x equal 4 + ${dbead}
    variable x equal 4 + 0.2
    variable y equal ${y0} + 1.5*${Ny}
    variable y equal 1 + 1.5*${Ny}
    variable y equal 1 + 1.5*2
    variable z equal ${z0} + 1.5*${Nz}
    variable z equal 2 + 1.5*${Nz}
    variable z equal 2 + 1.5*1
    create_atoms 2 single ${x} ${y} ${z}
    create_atoms 2 single 4.2 ${y} ${z}
    create_atoms 2 single 4.2 4 ${z}
    create_atoms 2 single 4.2 4 3.5
Created 1 atoms
  using lattice units in orthogonal box = (0 0 0) to (92.831777 92.831777 92.831777)
  create_atoms CPU = 0.000 seconds
    variable x0 equal ${x}
    variable x0 equal 4.2
    variable step equal ${step} + 1
    variable step equal 16 + 1
jump SELF loop_bead
if "${step} > ${N}" then "jump SELF end_inner"
    variable x equal ${x0} + ${dbead}
    variable x equal 4.2 + ${dbead}
    variable x equal 4.2 + 0.2
    variable y equal ${y0} + 1.5*${Ny}
    variable y equal 1 + 1.5*${Ny}
    variable y equal 1 + 1.5*2
    variable z equal ${z0} + 1.5*${Nz}
    variable z equal 2 + 1.5*${Nz}
    variable z equal 2 + 1.5*1
    create_atoms 2 single ${x} ${y} ${z}
    create_atoms 2 single 4.4 ${y} ${z}
    create_atoms 2 single 4.4 4 ${z}
    create_atoms 2 single 4.4 4 3.5
Created 1 atoms
  using lattice units in orthogonal box = (0 0 0) to (92.831777 92.831777 92.831777)
  create_atoms CPU = 0.000 seconds
    variable x0 equal ${x}
    variable x0 equal 4.4
    variable step equal ${step} + 1
    variable step equal 17 + 1
jump SELF loop_bead
if "${step} > ${N}" then "jump SELF end_inner"
    variable x equal ${x0} + ${dbead}
    variable x equal 4.4 + ${dbead}
    variable x equal 4.4 + 0.2
    variable y equal ${y0} + 1.5*${Ny}
    variable y equal 1 + 1.5*${Ny}
    variable y equal 1 + 1.5*2
    variable z equal ${z0} + 1.5*${Nz}
    variable z equal 2 + 1.5*${Nz}
    variable z equal 2 + 1.5*1
    create_atoms 2 single ${x} ${y} ${z}
    create_atoms 2 single 4.6 ${y} ${z}
    create_atoms 2 single 4.6 4 ${z}
    create_atoms 2 single 4.6 4 3.5
Created 1 atoms
  using lattice units in orthogonal box = (0 0 0) to (92.831777 92.831777 92.831777)
  create_atoms CPU = 0.000 seconds
    variable x0 equal ${x}
    variable x0 equal 4.6
    variable step equal ${step} + 1
    variable step equal 18 + 1
jump SELF loop_bead
if "${step} > ${N}" then "jump SELF end_inner"
    variable x equal ${x0} + ${dbead}
    variable x equal 4.6 + ${dbead}
    variable x equal 4.6 + 0.2
    variable y equal ${y0} + 1.5*${Ny}
    variable y equal 1 + 1.5*${Ny}
    variable y equal 1 + 1.5*2
    variable z equal ${z0} + 1.5*${Nz}
    variable z equal 2 + 1.5*${Nz}
    variable z equal 2 + 1.5*1
    create_atoms 2 single ${x} ${y} ${z}
    create_atoms 2 single 4.8 ${y} ${z}
    create_atoms 2 single 4.8 4 ${z}
    create_atoms 2 single 4.8 4 3.5
Created 1 atoms
  using lattice units in orthogonal box = (0 0 0) to (92.831777 92.831777 92.831777)
  create_atoms CPU = 0.000 seconds
    variable x0 equal ${x}
    variable x0 equal 4.8
    variable step equal ${step} + 1
    variable step equal 19 + 1
jump SELF loop_bead
if "${step} > ${N}" then "jump SELF end_inner"
    variable x equal ${x0} + ${dbead}
    variable x equal 4.8 + ${dbead}
    variable x equal 4.8 + 0.2
    variable y equal ${y0} + 1.5*${Ny}
    variable y equal 1 + 1.5*${Ny}
    variable y equal 1 + 1.5*2
    variable z equal ${z0} + 1.5*${Nz}
    variable z equal 2 + 1.5*${Nz}
    variable z equal 2 + 1.5*1
    create_atoms 2 single ${x} ${y} ${z}
    create_atoms 2 single 5 ${y} ${z}
    create_atoms 2 single 5 4 ${z}
    create_atoms 2 single 5 4 3.5
Created 1 atoms
  using lattice units in orthogonal box = (0 0 0) to (92.831777 92.831777 92.831777)
  create_atoms CPU = 0.000 seconds
    variable x0 equal ${x}
    variable x0 equal 5
    variable step equal ${step} + 1
    variable step equal 20 + 1
jump SELF loop_bead
if "${step} > ${N}" then "jump SELF end_inner"
    variable x equal ${x0} + ${dbead}
    variable x equal 5 + ${dbead}
    variable x equal 5 + 0.2
    variable y equal ${y0} + 1.5*${Ny}
    variable y equal 1 + 1.5*${Ny}
    variable y equal 1 + 1.5*2
    variable z equal ${z0} + 1.5*${Nz}
    variable z equal 2 + 1.5*${Nz}
    variable z equal 2 + 1.5*1
    create_atoms 2 single ${x} ${y} ${z}
    create_atoms 2 single 5.2 ${y} ${z}
    create_atoms 2 single 5.2 4 ${z}
    create_atoms 2 single 5.2 4 3.5
Created 1 atoms
  using lattice units in orthogonal box = (0 0 0) to (92.831777 92.831777 92.831777)
  create_atoms CPU = 0.000 seconds
    variable x0 equal ${x}
    variable x0 equal 5.2
    variable step equal ${step} + 1
    variable step equal 21 + 1
jump SELF loop_bead
if "${step} > ${N}" then "jump SELF end_inner"
    variable x equal ${x0} + ${dbead}
    variable x equal 5.2 + ${dbead}
    variable x equal 5.2 + 0.2
    variable y equal ${y0} + 1.5*${Ny}
    variable y equal 1 + 1.5*${Ny}
    variable y equal 1 + 1.5*2
    variable z equal ${z0} + 1.5*${Nz}
    variable z equal 2 + 1.5*${Nz}
    variable z equal 2 + 1.5*1
    create_atoms 2 single ${x} ${y} ${z}
    create_atoms 2 single 5.4 ${y} ${z}
    create_atoms 2 single 5.4 4 ${z}
    create_atoms 2 single 5.4 4 3.5
Created 1 atoms
  using lattice units in orthogonal box = (0 0 0) to (92.831777 92.831777 92.831777)
  create_atoms CPU = 0.000 seconds
    variable x0 equal ${x}
    variable x0 equal 5.4
    variable step equal ${step} + 1
    variable step equal 22 + 1
jump SELF loop_bead
if "${step} > ${N}" then "jump SELF end_inner"
    variable x equal ${x0} + ${dbead}
    variable x equal 5.4 + ${dbead}
    variable x equal 5.4 + 0.2
    variable y equal ${y0} + 1.5*${Ny}
    variable y equal 1 + 1.5*${Ny}
    variable y equal 1 + 1.5*2
    variable z equal ${z0} + 1.5*${Nz}
    variable z equal 2 + 1.5*${Nz}
    variable z equal 2 + 1.5*1
    create_atoms 2 single ${x} ${y} ${z}
    create_atoms 2 single 5.6 ${y} ${z}
    create_atoms 2 single 5.6 4 ${z}
    create_atoms 2 single 5.6 4 3.5
Created 1 atoms
  using lattice units in orthogonal box = (0 0 0) to (92.831777 92.831777 92.831777)
  create_atoms CPU = 0.000 seconds
    variable x0 equal ${x}
    variable x0 equal 5.6
    variable step equal ${step} + 1
    variable step equal 23 + 1
jump SELF loop_bead
if "${step} > ${N}" then "jump SELF end_inner"
    variable x equal ${x0} + ${dbead}
    variable x equal 5.6 + ${dbead}
    variable x equal 5.6 + 0.2
    variable y equal ${y0} + 1.5*${Ny}
    variable y equal 1 + 1.5*${Ny}
    variable y equal 1 + 1.5*2
    variable z equal ${z0} + 1.5*${Nz}
    variable z equal 2 + 1.5*${Nz}
    variable z equal 2 + 1.5*1
    create_atoms 2 single ${x} ${y} ${z}
    create_atoms 2 single 5.8 ${y} ${z}
    create_atoms 2 single 5.8 4 ${z}
    create_atoms 2 single 5.8 4 3.5
Created 1 atoms
  using lattice units in orthogonal box = (0 0 0) to (92.831777 92.831777 92.831777)
  create_atoms CPU = 0.000 seconds
    variable x0 equal ${x}
    variable x0 equal 5.8
    variable step equal ${step} + 1
    variable step equal 24 + 1
jump SELF loop_bead
if "${step} > ${N}" then "jump SELF end_inner"
    variable x equal ${x0} + ${dbead}
    variable x equal 5.8 + ${dbead}
    variable x equal 5.8 + 0.2
    variable y equal ${y0} + 1.5*${Ny}
    variable y equal 1 + 1.5*${Ny}
    variable y equal 1 + 1.5*2
    variable z equal ${z0} + 1.5*${Nz}
    variable z equal 2 + 1.5*${Nz}
    variable z equal 2 + 1.5*1
    create_atoms 2 single ${x} ${y} ${z}
    create_atoms 2 single 6 ${y} ${z}
    create_atoms 2 single 6 4 ${z}
    create_atoms 2 single 6 4 3.5
Created 1 atoms
  using lattice units in orthogonal box = (0 0 0) to (92.831777 92.831777 92.831777)
  create_atoms CPU = 0.000 seconds
    variable x0 equal ${x}
    variable x0 equal 6
    variable step equal ${step} + 1
    variable step equal 25 + 1
jump SELF loop_bead
if "${step} > ${N}" then "jump SELF end_inner"
    variable x equal ${x0} + ${dbead}
    variable x equal 6 + ${dbead}
    variable x equal 6 + 0.2
    variable y equal ${y0} + 1.5*${Ny}
    variable y equal 1 + 1.5*${Ny}
    variable y equal 1 + 1.5*2
    variable z equal ${z0} + 1.5*${Nz}
    variable z equal 2 + 1.5*${Nz}
    variable z equal 2 + 1.5*1
    create_atoms 2 single ${x} ${y} ${z}
    create_atoms 2 single 6.2 ${y} ${z}
    create_atoms 2 single 6.2 4 ${z}
    create_atoms 2 single 6.2 4 3.5
Created 1 atoms
  using lattice units in orthogonal box = (0 0 0) to (92.831777 92.831777 92.831777)
  create_atoms CPU = 0.001 seconds
    variable x0 equal ${x}
    variable x0 equal 6.2
    variable step equal ${step} + 1
    variable step equal 26 + 1
jump SELF loop_bead
if "${step} > ${N}" then "jump SELF end_inner"
    variable x equal ${x0} + ${dbead}
    variable x equal 6.2 + ${dbead}
    variable x equal 6.2 + 0.2
    variable y equal ${y0} + 1.5*${Ny}
    variable y equal 1 + 1.5*${Ny}
    variable y equal 1 + 1.5*2
    variable z equal ${z0} + 1.5*${Nz}
    variable z equal 2 + 1.5*${Nz}
    variable z equal 2 + 1.5*1
    create_atoms 2 single ${x} ${y} ${z}
    create_atoms 2 single 6.4 ${y} ${z}
    create_atoms 2 single 6.4 4 ${z}
    create_atoms 2 single 6.4 4 3.5
Created 1 atoms
  using lattice units in orthogonal box = (0 0 0) to (92.831777 92.831777 92.831777)
  create_atoms CPU = 0.000 seconds
    variable x0 equal ${x}
    variable x0 equal 6.4
    variable step equal ${step} + 1
    variable step equal 27 + 1
jump SELF loop_bead
if "${step} > ${N}" then "jump SELF end_inner"
    variable x equal ${x0} + ${dbead}
    variable x equal 6.4 + ${dbead}
    variable x equal 6.4 + 0.2
    variable y equal ${y0} + 1.5*${Ny}
    variable y equal 1 + 1.5*${Ny}
    variable y equal 1 + 1.5*2
    variable z equal ${z0} + 1.5*${Nz}
    variable z equal 2 + 1.5*${Nz}
    variable z equal 2 + 1.5*1
    create_atoms 2 single ${x} ${y} ${z}
    create_atoms 2 single 6.6 ${y} ${z}
    create_atoms 2 single 6.6 4 ${z}
    create_atoms 2 single 6.6 4 3.5
Created 1 atoms
  using lattice units in orthogonal box = (0 0 0) to (92.831777 92.831777 92.831777)
  create_atoms CPU = 0.000 seconds
    variable x0 equal ${x}
    variable x0 equal 6.6
    variable step equal ${step} + 1
    variable step equal 28 + 1
jump SELF loop_bead
if "${step} > ${N}" then "jump SELF end_inner"
    variable x equal ${x0} + ${dbead}
    variable x equal 6.6 + ${dbead}
    variable x equal 6.6 + 0.2
    variable y equal ${y0} + 1.5*${Ny}
    variable y equal 1 + 1.5*${Ny}
    variable y equal 1 + 1.5*2
    variable z equal ${z0} + 1.5*${Nz}
    variable z equal 2 + 1.5*${Nz}
    variable z equal 2 + 1.5*1
    create_atoms 2 single ${x} ${y} ${z}
    create_atoms 2 single 6.8 ${y} ${z}
    create_atoms 2 single 6.8 4 ${z}
    create_atoms 2 single 6.8 4 3.5
Created 1 atoms
  using lattice units in orthogonal box = (0 0 0) to (92.831777 92.831777 92.831777)
  create_atoms CPU = 0.000 seconds
    variable x0 equal ${x}
    variable x0 equal 6.8
    variable step equal ${step} + 1
    variable step equal 29 + 1
jump SELF loop_bead
if "${step} > ${N}" then "jump SELF end_inner"
    variable x equal ${x0} + ${dbead}
    variable x equal 6.8 + ${dbead}
    variable x equal 6.8 + 0.2
    variable y equal ${y0} + 1.5*${Ny}
    variable y equal 1 + 1.5*${Ny}
    variable y equal 1 + 1.5*2
    variable z equal ${z0} + 1.5*${Nz}
    variable z equal 2 + 1.5*${Nz}
    variable z equal 2 + 1.5*1
    create_atoms 2 single ${x} ${y} ${z}
    create_atoms 2 single 7 ${y} ${z}
    create_atoms 2 single 7 4 ${z}
    create_atoms 2 single 7 4 3.5
Created 1 atoms
  using lattice units in orthogonal box = (0 0 0) to (92.831777 92.831777 92.831777)
  create_atoms CPU = 0.000 seconds
    variable x0 equal ${x}
    variable x0 equal 7
    variable step equal ${step} + 1
    variable step equal 30 + 1
jump SELF loop_bead
if "${step} > ${N}" then "jump SELF end_inner"
jump SELF end_inner
variable x0 equal 1.0
variable y0 equal 1.0
variable step equal 1
next Ny
jump SELF loop_y
label loop_bead
if "${step} > ${N}" then "jump SELF end_inner"
    variable x equal ${x0} + ${dbead}
    variable x equal 1 + ${dbead}
    variable x equal 1 + 0.2
    variable y equal ${y0} + 1.5*${Ny}
    variable y equal 1 + 1.5*${Ny}
    variable y equal 1 + 1.5*3
    variable z equal ${z0} + 1.5*${Nz}
    variable z equal 2 + 1.5*${Nz}
    variable z equal 2 + 1.5*1
    create_atoms 2 single ${x} ${y} ${z}
    create_atoms 2 single 1.2 ${y} ${z}
    create_atoms 2 single 1.2 5.5 ${z}
    create_atoms 2 single 1.2 5.5 3.5
Created 1 atoms
  using lattice units in orthogonal box = (0 0 0) to (92.831777 92.831777 92.831777)
  create_atoms CPU = 0.000 seconds
    variable x0 equal ${x}
    variable x0 equal 1.2
    variable step equal ${step} + 1
    variable step equal 1 + 1
jump SELF loop_bead
if "${step} > ${N}" then "jump SELF end_inner"
    variable x equal ${x0} + ${dbead}
    variable x equal 1.2 + ${dbead}
    variable x equal 1.2 + 0.2
    variable y equal ${y0} + 1.5*${Ny}
    variable y equal 1 + 1.5*${Ny}
    variable y equal 1 + 1.5*3
    variable z equal ${z0} + 1.5*${Nz}
    variable z equal 2 + 1.5*${Nz}
    variable z equal 2 + 1.5*1
    create_atoms 2 single ${x} ${y} ${z}
    create_atoms 2 single 1.4 ${y} ${z}
    create_atoms 2 single 1.4 5.5 ${z}
    create_atoms 2 single 1.4 5.5 3.5
Created 1 atoms
  using lattice units in orthogonal box = (0 0 0) to (92.831777 92.831777 92.831777)
  create_atoms CPU = 0.000 seconds
    variable x0 equal ${x}
    variable x0 equal 1.4
    variable step equal ${step} + 1
    variable step equal 2 + 1
jump SELF loop_bead
if "${step} > ${N}" then "jump SELF end_inner"
    variable x equal ${x0} + ${dbead}
    variable x equal 1.4 + ${dbead}
    variable x equal 1.4 + 0.2
    variable y equal ${y0} + 1.5*${Ny}
    variable y equal 1 + 1.5*${Ny}
    variable y equal 1 + 1.5*3
    variable z equal ${z0} + 1.5*${Nz}
    variable z equal 2 + 1.5*${Nz}
    variable z equal 2 + 1.5*1
    create_atoms 2 single ${x} ${y} ${z}
    create_atoms 2 single 1.6 ${y} ${z}
    create_atoms 2 single 1.6 5.5 ${z}
    create_atoms 2 single 1.6 5.5 3.5
Created 1 atoms
  using lattice units in orthogonal box = (0 0 0) to (92.831777 92.831777 92.831777)
  create_atoms CPU = 0.000 seconds
    variable x0 equal ${x}
    variable x0 equal 1.6
    variable step equal ${step} + 1
    variable step equal 3 + 1
jump SELF loop_bead
if "${step} > ${N}" then "jump SELF end_inner"
    variable x equal ${x0} + ${dbead}
    variable x equal 1.6 + ${dbead}
    variable x equal 1.6 + 0.2
    variable y equal ${y0} + 1.5*${Ny}
    variable y equal 1 + 1.5*${Ny}
    variable y equal 1 + 1.5*3
    variable z equal ${z0} + 1.5*${Nz}
    variable z equal 2 + 1.5*${Nz}
    variable z equal 2 + 1.5*1
    create_atoms 2 single ${x} ${y} ${z}
    create_atoms 2 single 1.8 ${y} ${z}
    create_atoms 2 single 1.8 5.5 ${z}
    create_atoms 2 single 1.8 5.5 3.5
Created 1 atoms
  using lattice units in orthogonal box = (0 0 0) to (92.831777 92.831777 92.831777)
  create_atoms CPU = 0.000 seconds
    variable x0 equal ${x}
    variable x0 equal 1.8
    variable step equal ${step} + 1
    variable step equal 4 + 1
jump SELF loop_bead
if "${step} > ${N}" then "jump SELF end_inner"
    variable x equal ${x0} + ${dbead}
    variable x equal 1.8 + ${dbead}
    variable x equal 1.8 + 0.2
    variable y equal ${y0} + 1.5*${Ny}
    variable y equal 1 + 1.5*${Ny}
    variable y equal 1 + 1.5*3
    variable z equal ${z0} + 1.5*${Nz}
    variable z equal 2 + 1.5*${Nz}
    variable z equal 2 + 1.5*1
    create_atoms 2 single ${x} ${y} ${z}
    create_atoms 2 single 2 ${y} ${z}
    create_atoms 2 single 2 5.5 ${z}
    create_atoms 2 single 2 5.5 3.5
Created 1 atoms
  using lattice units in orthogonal box = (0 0 0) to (92.831777 92.831777 92.831777)
  create_atoms CPU = 0.000 seconds
    variable x0 equal ${x}
    variable x0 equal 2
    variable step equal ${step} + 1
    variable step equal 5 + 1
jump SELF loop_bead
if "${step} > ${N}" then "jump SELF end_inner"
    variable x equal ${x0} + ${dbead}
    variable x equal 2 + ${dbead}
    variable x equal 2 + 0.2
    variable y equal ${y0} + 1.5*${Ny}
    variable y equal 1 + 1.5*${Ny}
    variable y equal 1 + 1.5*3
    variable z equal ${z0} + 1.5*${Nz}
    variable z equal 2 + 1.5*${Nz}
    variable z equal 2 + 1.5*1
    create_atoms 2 single ${x} ${y} ${z}
    create_atoms 2 single 2.2 ${y} ${z}
    create_atoms 2 single 2.2 5.5 ${z}
    create_atoms 2 single 2.2 5.5 3.5
Created 1 atoms
  using lattice units in orthogonal box = (0 0 0) to (92.831777 92.831777 92.831777)
  create_atoms CPU = 0.000 seconds
    variable x0 equal ${x}
    variable x0 equal 2.2
    variable step equal ${step} + 1
    variable step equal 6 + 1
jump SELF loop_bead
if "${step} > ${N}" then "jump SELF end_inner"
    variable x equal ${x0} + ${dbead}
    variable x equal 2.2 + ${dbead}
    variable x equal 2.2 + 0.2
    variable y equal ${y0} + 1.5*${Ny}
    variable y equal 1 + 1.5*${Ny}
    variable y equal 1 + 1.5*3
    variable z equal ${z0} + 1.5*${Nz}
    variable z equal 2 + 1.5*${Nz}
    variable z equal 2 + 1.5*1
    create_atoms 2 single ${x} ${y} ${z}
    create_atoms 2 single 2.4 ${y} ${z}
    create_atoms 2 single 2.4 5.5 ${z}
    create_atoms 2 single 2.4 5.5 3.5
Created 1 atoms
  using lattice units in orthogonal box = (0 0 0) to (92.831777 92.831777 92.831777)
  create_atoms CPU = 0.000 seconds
    variable x0 equal ${x}
    variable x0 equal 2.4
    variable step equal ${step} + 1
    variable step equal 7 + 1
jump SELF loop_bead
if "${step} > ${N}" then "jump SELF end_inner"
    variable x equal ${x0} + ${dbead}
    variable x equal 2.4 + ${dbead}
    variable x equal 2.4 + 0.2
    variable y equal ${y0} + 1.5*${Ny}
    variable y equal 1 + 1.5*${Ny}
    variable y equal 1 + 1.5*3
    variable z equal ${z0} + 1.5*${Nz}
    variable z equal 2 + 1.5*${Nz}
    variable z equal 2 + 1.5*1
    create_atoms 2 single ${x} ${y} ${z}
    create_atoms 2 single 2.6 ${y} ${z}
    create_atoms 2 single 2.6 5.5 ${z}
    create_atoms 2 single 2.6 5.5 3.5
Created 1 atoms
  using lattice units in orthogonal box = (0 0 0) to (92.831777 92.831777 92.831777)
  create_atoms CPU = 0.000 seconds
    variable x0 equal ${x}
    variable x0 equal 2.6
    variable step equal ${step} + 1
    variable step equal 8 + 1
jump SELF loop_bead
if "${step} > ${N}" then "jump SELF end_inner"
    variable x equal ${x0} + ${dbead}
    variable x equal 2.6 + ${dbead}
    variable x equal 2.6 + 0.2
    variable y equal ${y0} + 1.5*${Ny}
    variable y equal 1 + 1.5*${Ny}
    variable y equal 1 + 1.5*3
    variable z equal ${z0} + 1.5*${Nz}
    variable z equal 2 + 1.5*${Nz}
    variable z equal 2 + 1.5*1
    create_atoms 2 single ${x} ${y} ${z}
    create_atoms 2 single 2.8 ${y} ${z}
    create_atoms 2 single 2.8 5.5 ${z}
    create_atoms 2 single 2.8 5.5 3.5
Created 1 atoms
  using lattice units in orthogonal box = (0 0 0) to (92.831777 92.831777 92.831777)
  create_atoms CPU = 0.000 seconds
    variable x0 equal ${x}
    variable x0 equal 2.8
    variable step equal ${step} + 1
    variable step equal 9 + 1
jump SELF loop_bead
if "${step} > ${N}" then "jump SELF end_inner"
    variable x equal ${x0} + ${dbead}
    variable x equal 2.8 + ${dbead}
    variable x equal 2.8 + 0.2
    variable y equal ${y0} + 1.5*${Ny}
    variable y equal 1 + 1.5*${Ny}
    variable y equal 1 + 1.5*3
    variable z equal ${z0} + 1.5*${Nz}
    variable z equal 2 + 1.5*${Nz}
    variable z equal 2 + 1.5*1
    create_atoms 2 single ${x} ${y} ${z}
    create_atoms 2 single 3 ${y} ${z}
    create_atoms 2 single 3 5.5 ${z}
    create_atoms 2 single 3 5.5 3.5
Created 1 atoms
  using lattice units in orthogonal box = (0 0 0) to (92.831777 92.831777 92.831777)
  create_atoms CPU = 0.000 seconds
    variable x0 equal ${x}
    variable x0 equal 3
    variable step equal ${step} + 1
    variable step equal 10 + 1
jump SELF loop_bead
if "${step} > ${N}" then "jump SELF end_inner"
    variable x equal ${x0} + ${dbead}
    variable x equal 3 + ${dbead}
    variable x equal 3 + 0.2
    variable y equal ${y0} + 1.5*${Ny}
    variable y equal 1 + 1.5*${Ny}
    variable y equal 1 + 1.5*3
    variable z equal ${z0} + 1.5*${Nz}
    variable z equal 2 + 1.5*${Nz}
    variable z equal 2 + 1.5*1
    create_atoms 2 single ${x} ${y} ${z}
    create_atoms 2 single 3.2 ${y} ${z}
    create_atoms 2 single 3.2 5.5 ${z}
    create_atoms 2 single 3.2 5.5 3.5
Created 1 atoms
  using lattice units in orthogonal box = (0 0 0) to (92.831777 92.831777 92.831777)
  create_atoms CPU = 0.000 seconds
    variable x0 equal ${x}
    variable x0 equal 3.2
    variable step equal ${step} + 1
    variable step equal 11 + 1
jump SELF loop_bead
if "${step} > ${N}" then "jump SELF end_inner"
    variable x equal ${x0} + ${dbead}
    variable x equal 3.2 + ${dbead}
    variable x equal 3.2 + 0.2
    variable y equal ${y0} + 1.5*${Ny}
    variable y equal 1 + 1.5*${Ny}
    variable y equal 1 + 1.5*3
    variable z equal ${z0} + 1.5*${Nz}
    variable z equal 2 + 1.5*${Nz}
    variable z equal 2 + 1.5*1
    create_atoms 2 single ${x} ${y} ${z}
    create_atoms 2 single 3.4 ${y} ${z}
    create_atoms 2 single 3.4 5.5 ${z}
    create_atoms 2 single 3.4 5.5 3.5
Created 1 atoms
  using lattice units in orthogonal box = (0 0 0) to (92.831777 92.831777 92.831777)
  create_atoms CPU = 0.000 seconds
    variable x0 equal ${x}
    variable x0 equal 3.4
    variable step equal ${step} + 1
    variable step equal 12 + 1
jump SELF loop_bead
if "${step} > ${N}" then "jump SELF end_inner"
    variable x equal ${x0} + ${dbead}
    variable x equal 3.4 + ${dbead}
    variable x equal 3.4 + 0.2
    variable y equal ${y0} + 1.5*${Ny}
    variable y equal 1 + 1.5*${Ny}
    variable y equal 1 + 1.5*3
    variable z equal ${z0} + 1.5*${Nz}
    variable z equal 2 + 1.5*${Nz}
    variable z equal 2 + 1.5*1
    create_atoms 2 single ${x} ${y} ${z}
    create_atoms 2 single 3.6 ${y} ${z}
    create_atoms 2 single 3.6 5.5 ${z}
    create_atoms 2 single 3.6 5.5 3.5
Created 1 atoms
  using lattice units in orthogonal box = (0 0 0) to (92.831777 92.831777 92.831777)
  create_atoms CPU = 0.000 seconds
    variable x0 equal ${x}
    variable x0 equal 3.6
    variable step equal ${step} + 1
    variable step equal 13 + 1
jump SELF loop_bead
if "${step} > ${N}" then "jump SELF end_inner"
    variable x equal ${x0} + ${dbead}
    variable x equal 3.6 + ${dbead}
    variable x equal 3.6 + 0.2
    variable y equal ${y0} + 1.5*${Ny}
    variable y equal 1 + 1.5*${Ny}
    variable y equal 1 + 1.5*3
    variable z equal ${z0} + 1.5*${Nz}
    variable z equal 2 + 1.5*${Nz}
    variable z equal 2 + 1.5*1
    create_atoms 2 single ${x} ${y} ${z}
    create_atoms 2 single 3.8 ${y} ${z}
    create_atoms 2 single 3.8 5.5 ${z}
    create_atoms 2 single 3.8 5.5 3.5
Created 1 atoms
  using lattice units in orthogonal box = (0 0 0) to (92.831777 92.831777 92.831777)
  create_atoms CPU = 0.000 seconds
    variable x0 equal ${x}
    variable x0 equal 3.8
    variable step equal ${step} + 1
    variable step equal 14 + 1
jump SELF loop_bead
if "${step} > ${N}" then "jump SELF end_inner"
    variable x equal ${x0} + ${dbead}
    variable x equal 3.8 + ${dbead}
    variable x equal 3.8 + 0.2
    variable y equal ${y0} + 1.5*${Ny}
    variable y equal 1 + 1.5*${Ny}
    variable y equal 1 + 1.5*3
    variable z equal ${z0} + 1.5*${Nz}
    variable z equal 2 + 1.5*${Nz}
    variable z equal 2 + 1.5*1
    create_atoms 2 single ${x} ${y} ${z}
    create_atoms 2 single 4 ${y} ${z}
    create_atoms 2 single 4 5.5 ${z}
    create_atoms 2 single 4 5.5 3.5
Created 1 atoms
  using lattice units in orthogonal box = (0 0 0) to (92.831777 92.831777 92.831777)
  create_atoms CPU = 0.000 seconds
    variable x0 equal ${x}
    variable x0 equal 4
    variable step equal ${step} + 1
    variable step equal 15 + 1
jump SELF loop_bead
if "${step} > ${N}" then "jump SELF end_inner"
    variable x equal ${x0} + ${dbead}
    variable x equal 4 + ${dbead}
    variable x equal 4 + 0.2
    variable y equal ${y0} + 1.5*${Ny}
    variable y equal 1 + 1.5*${Ny}
    variable y equal 1 + 1.5*3
    variable z equal ${z0} + 1.5*${Nz}
    variable z equal 2 + 1.5*${Nz}
    variable z equal 2 + 1.5*1
    create_atoms 2 single ${x} ${y} ${z}
    create_atoms 2 single 4.2 ${y} ${z}
    create_atoms 2 single 4.2 5.5 ${z}
    create_atoms 2 single 4.2 5.5 3.5
Created 1 atoms
  using lattice units in orthogonal box = (0 0 0) to (92.831777 92.831777 92.831777)
  create_atoms CPU = 0.000 seconds
    variable x0 equal ${x}
    variable x0 equal 4.2
    variable step equal ${step} + 1
    variable step equal 16 + 1
jump SELF loop_bead
if "${step} > ${N}" then "jump SELF end_inner"
    variable x equal ${x0} + ${dbead}
    variable x equal 4.2 + ${dbead}
    variable x equal 4.2 + 0.2
    variable y equal ${y0} + 1.5*${Ny}
    variable y equal 1 + 1.5*${Ny}
    variable y equal 1 + 1.5*3
    variable z equal ${z0} + 1.5*${Nz}
    variable z equal 2 + 1.5*${Nz}
    variable z equal 2 + 1.5*1
    create_atoms 2 single ${x} ${y} ${z}
    create_atoms 2 single 4.4 ${y} ${z}
    create_atoms 2 single 4.4 5.5 ${z}
    create_atoms 2 single 4.4 5.5 3.5
Created 1 atoms
  using lattice units in orthogonal box = (0 0 0) to (92.831777 92.831777 92.831777)
  create_atoms CPU = 0.000 seconds
    variable x0 equal ${x}
    variable x0 equal 4.4
    variable step equal ${step} + 1
    variable step equal 17 + 1
jump SELF loop_bead
if "${step} > ${N}" then "jump SELF end_inner"
    variable x equal ${x0} + ${dbead}
    variable x equal 4.4 + ${dbead}
    variable x equal 4.4 + 0.2
    variable y equal ${y0} + 1.5*${Ny}
    variable y equal 1 + 1.5*${Ny}
    variable y equal 1 + 1.5*3
    variable z equal ${z0} + 1.5*${Nz}
    variable z equal 2 + 1.5*${Nz}
    variable z equal 2 + 1.5*1
    create_atoms 2 single ${x} ${y} ${z}
    create_atoms 2 single 4.6 ${y} ${z}
    create_atoms 2 single 4.6 5.5 ${z}
    create_atoms 2 single 4.6 5.5 3.5
Created 1 atoms
  using lattice units in orthogonal box = (0 0 0) to (92.831777 92.831777 92.831777)
  create_atoms CPU = 0.000 seconds
    variable x0 equal ${x}
    variable x0 equal 4.6
    variable step equal ${step} + 1
    variable step equal 18 + 1
jump SELF loop_bead
if "${step} > ${N}" then "jump SELF end_inner"
    variable x equal ${x0} + ${dbead}
    variable x equal 4.6 + ${dbead}
    variable x equal 4.6 + 0.2
    variable y equal ${y0} + 1.5*${Ny}
    variable y equal 1 + 1.5*${Ny}
    variable y equal 1 + 1.5*3
    variable z equal ${z0} + 1.5*${Nz}
    variable z equal 2 + 1.5*${Nz}
    variable z equal 2 + 1.5*1
    create_atoms 2 single ${x} ${y} ${z}
    create_atoms 2 single 4.8 ${y} ${z}
    create_atoms 2 single 4.8 5.5 ${z}
    create_atoms 2 single 4.8 5.5 3.5
Created 1 atoms
  using lattice units in orthogonal box = (0 0 0) to (92.831777 92.831777 92.831777)
  create_atoms CPU = 0.000 seconds
    variable x0 equal ${x}
    variable x0 equal 4.8
    variable step equal ${step} + 1
    variable step equal 19 + 1
jump SELF loop_bead
if "${step} > ${N}" then "jump SELF end_inner"
    variable x equal ${x0} + ${dbead}
    variable x equal 4.8 + ${dbead}
    variable x equal 4.8 + 0.2
    variable y equal ${y0} + 1.5*${Ny}
    variable y equal 1 + 1.5*${Ny}
    variable y equal 1 + 1.5*3
    variable z equal ${z0} + 1.5*${Nz}
    variable z equal 2 + 1.5*${Nz}
    variable z equal 2 + 1.5*1
    create_atoms 2 single ${x} ${y} ${z}
    create_atoms 2 single 5 ${y} ${z}
    create_atoms 2 single 5 5.5 ${z}
    create_atoms 2 single 5 5.5 3.5
Created 1 atoms
  using lattice units in orthogonal box = (0 0 0) to (92.831777 92.831777 92.831777)
  create_atoms CPU = 0.000 seconds
    variable x0 equal ${x}
    variable x0 equal 5
    variable step equal ${step} + 1
    variable step equal 20 + 1
jump SELF loop_bead
if "${step} > ${N}" then "jump SELF end_inner"
    variable x equal ${x0} + ${dbead}
    variable x equal 5 + ${dbead}
    variable x equal 5 + 0.2
    variable y equal ${y0} + 1.5*${Ny}
    variable y equal 1 + 1.5*${Ny}
    variable y equal 1 + 1.5*3
    variable z equal ${z0} + 1.5*${Nz}
    variable z equal 2 + 1.5*${Nz}
    variable z equal 2 + 1.5*1
    create_atoms 2 single ${x} ${y} ${z}
    create_atoms 2 single 5.2 ${y} ${z}
    create_atoms 2 single 5.2 5.5 ${z}
    create_atoms 2 single 5.2 5.5 3.5
Created 1 atoms
  using lattice units in orthogonal box = (0 0 0) to (92.831777 92.831777 92.831777)
  create_atoms CPU = 0.000 seconds
    variable x0 equal ${x}
    variable x0 equal 5.2
    variable step equal ${step} + 1
    variable step equal 21 + 1
jump SELF loop_bead
if "${step} > ${N}" then "jump SELF end_inner"
    variable x equal ${x0} + ${dbead}
    variable x equal 5.2 + ${dbead}
    variable x equal 5.2 + 0.2
    variable y equal ${y0} + 1.5*${Ny}
    variable y equal 1 + 1.5*${Ny}
    variable y equal 1 + 1.5*3
    variable z equal ${z0} + 1.5*${Nz}
    variable z equal 2 + 1.5*${Nz}
    variable z equal 2 + 1.5*1
    create_atoms 2 single ${x} ${y} ${z}
    create_atoms 2 single 5.4 ${y} ${z}
    create_atoms 2 single 5.4 5.5 ${z}
    create_atoms 2 single 5.4 5.5 3.5
Created 1 atoms
  using lattice units in orthogonal box = (0 0 0) to (92.831777 92.831777 92.831777)
  create_atoms CPU = 0.000 seconds
    variable x0 equal ${x}
    variable x0 equal 5.4
    variable step equal ${step} + 1
    variable step equal 22 + 1
jump SELF loop_bead
if "${step} > ${N}" then "jump SELF end_inner"
    variable x equal ${x0} + ${dbead}
    variable x equal 5.4 + ${dbead}
    variable x equal 5.4 + 0.2
    variable y equal ${y0} + 1.5*${Ny}
    variable y equal 1 + 1.5*${Ny}
    variable y equal 1 + 1.5*3
    variable z equal ${z0} + 1.5*${Nz}
    variable z equal 2 + 1.5*${Nz}
    variable z equal 2 + 1.5*1
    create_atoms 2 single ${x} ${y} ${z}
    create_atoms 2 single 5.6 ${y} ${z}
    create_atoms 2 single 5.6 5.5 ${z}
    create_atoms 2 single 5.6 5.5 3.5
Created 1 atoms
  using lattice units in orthogonal box = (0 0 0) to (92.831777 92.831777 92.831777)
  create_atoms CPU = 0.000 seconds
    variable x0 equal ${x}
    variable x0 equal 5.6
    variable step equal ${step} + 1
    variable step equal 23 + 1
jump SELF loop_bead
if "${step} > ${N}" then "jump SELF end_inner"
    variable x equal ${x0} + ${dbead}
    variable x equal 5.6 + ${dbead}
    variable x equal 5.6 + 0.2
    variable y equal ${y0} + 1.5*${Ny}
    variable y equal 1 + 1.5*${Ny}
    variable y equal 1 + 1.5*3
    variable z equal ${z0} + 1.5*${Nz}
    variable z equal 2 + 1.5*${Nz}
    variable z equal 2 + 1.5*1
    create_atoms 2 single ${x} ${y} ${z}
    create_atoms 2 single 5.8 ${y} ${z}
    create_atoms 2 single 5.8 5.5 ${z}
    create_atoms 2 single 5.8 5.5 3.5
Created 1 atoms
  using lattice units in orthogonal box = (0 0 0) to (92.831777 92.831777 92.831777)
  create_atoms CPU = 0.000 seconds
    variable x0 equal ${x}
    variable x0 equal 5.8
    variable step equal ${step} + 1
    variable step equal 24 + 1
jump SELF loop_bead
if "${step} > ${N}" then "jump SELF end_inner"
    variable x equal ${x0} + ${dbead}
    variable x equal 5.8 + ${dbead}
    variable x equal 5.8 + 0.2
    variable y equal ${y0} + 1.5*${Ny}
    variable y equal 1 + 1.5*${Ny}
    variable y equal 1 + 1.5*3
    variable z equal ${z0} + 1.5*${Nz}
    variable z equal 2 + 1.5*${Nz}
    variable z equal 2 + 1.5*1
    create_atoms 2 single ${x} ${y} ${z}
    create_atoms 2 single 6 ${y} ${z}
    create_atoms 2 single 6 5.5 ${z}
    create_atoms 2 single 6 5.5 3.5
Created 1 atoms
  using lattice units in orthogonal box = (0 0 0) to (92.831777 92.831777 92.831777)
  create_atoms CPU = 0.000 seconds
    variable x0 equal ${x}
    variable x0 equal 6
    variable step equal ${step} + 1
    variable step equal 25 + 1
jump SELF loop_bead
if "${step} > ${N}" then "jump SELF end_inner"
    variable x equal ${x0} + ${dbead}
    variable x equal 6 + ${dbead}
    variable x equal 6 + 0.2
    variable y equal ${y0} + 1.5*${Ny}
    variable y equal 1 + 1.5*${Ny}
    variable y equal 1 + 1.5*3
    variable z equal ${z0} + 1.5*${Nz}
    variable z equal 2 + 1.5*${Nz}
    variable z equal 2 + 1.5*1
    create_atoms 2 single ${x} ${y} ${z}
    create_atoms 2 single 6.2 ${y} ${z}
    create_atoms 2 single 6.2 5.5 ${z}
    create_atoms 2 single 6.2 5.5 3.5
Created 1 atoms
  using lattice units in orthogonal box = (0 0 0) to (92.831777 92.831777 92.831777)
  create_atoms CPU = 0.000 seconds
    variable x0 equal ${x}
    variable x0 equal 6.2
    variable step equal ${step} + 1
    variable step equal 26 + 1
jump SELF loop_bead
if "${step} > ${N}" then "jump SELF end_inner"
    variable x equal ${x0} + ${dbead}
    variable x equal 6.2 + ${dbead}
    variable x equal 6.2 + 0.2
    variable y equal ${y0} + 1.5*${Ny}
    variable y equal 1 + 1.5*${Ny}
    variable y equal 1 + 1.5*3
    variable z equal ${z0} + 1.5*${Nz}
    variable z equal 2 + 1.5*${Nz}
    variable z equal 2 + 1.5*1
    create_atoms 2 single ${x} ${y} ${z}
    create_atoms 2 single 6.4 ${y} ${z}
    create_atoms 2 single 6.4 5.5 ${z}
    create_atoms 2 single 6.4 5.5 3.5
Created 1 atoms
  using lattice units in orthogonal box = (0 0 0) to (92.831777 92.831777 92.831777)
  create_atoms CPU = 0.000 seconds
    variable x0 equal ${x}
    variable x0 equal 6.4
    variable step equal ${step} + 1
    variable step equal 27 + 1
jump SELF loop_bead
if "${step} > ${N}" then "jump SELF end_inner"
    variable x equal ${x0} + ${dbead}
    variable x equal 6.4 + ${dbead}
    variable x equal 6.4 + 0.2
    variable y equal ${y0} + 1.5*${Ny}
    variable y equal 1 + 1.5*${Ny}
    variable y equal 1 + 1.5*3
    variable z equal ${z0} + 1.5*${Nz}
    variable z equal 2 + 1.5*${Nz}
    variable z equal 2 + 1.5*1
    create_atoms 2 single ${x} ${y} ${z}
    create_atoms 2 single 6.6 ${y} ${z}
    create_atoms 2 single 6.6 5.5 ${z}
    create_atoms 2 single 6.6 5.5 3.5
Created 1 atoms
  using lattice units in orthogonal box = (0 0 0) to (92.831777 92.831777 92.831777)
  create_atoms CPU = 0.000 seconds
    variable x0 equal ${x}
    variable x0 equal 6.6
    variable step equal ${step} + 1
    variable step equal 28 + 1
jump SELF loop_bead
if "${step} > ${N}" then "jump SELF end_inner"
    variable x equal ${x0} + ${dbead}
    variable x equal 6.6 + ${dbead}
    variable x equal 6.6 + 0.2
    variable y equal ${y0} + 1.5*${Ny}
    variable y equal 1 + 1.5*${Ny}
    variable y equal 1 + 1.5*3
    variable z equal ${z0} + 1.5*${Nz}
    variable z equal 2 + 1.5*${Nz}
    variable z equal 2 + 1.5*1
    create_atoms 2 single ${x} ${y} ${z}
    create_atoms 2 single 6.8 ${y} ${z}
    create_atoms 2 single 6.8 5.5 ${z}
    create_atoms 2 single 6.8 5.5 3.5
Created 1 atoms
  using lattice units in orthogonal box = (0 0 0) to (92.831777 92.831777 92.831777)
  create_atoms CPU = 0.000 seconds
    variable x0 equal ${x}
    variable x0 equal 6.8
    variable step equal ${step} + 1
    variable step equal 29 + 1
jump SELF loop_bead
if "${step} > ${N}" then "jump SELF end_inner"
    variable x equal ${x0} + ${dbead}
    variable x equal 6.8 + ${dbead}
    variable x equal 6.8 + 0.2
    variable y equal ${y0} + 1.5*${Ny}
    variable y equal 1 + 1.5*${Ny}
    variable y equal 1 + 1.5*3
    variable z equal ${z0} + 1.5*${Nz}
    variable z equal 2 + 1.5*${Nz}
    variable z equal 2 + 1.5*1
    create_atoms 2 single ${x} ${y} ${z}
    create_atoms 2 single 7 ${y} ${z}
    create_atoms 2 single 7 5.5 ${z}
    create_atoms 2 single 7 5.5 3.5
Created 1 atoms
  using lattice units in orthogonal box = (0 0 0) to (92.831777 92.831777 92.831777)
  create_atoms CPU = 0.000 seconds
    variable x0 equal ${x}
    variable x0 equal 7
    variable step equal ${step} + 1
    variable step equal 30 + 1
jump SELF loop_bead
if "${step} > ${N}" then "jump SELF end_inner"
jump SELF end_inner
variable x0 equal 1.0
variable y0 equal 1.0
variable step equal 1
next Ny
jump SELF loop_y
label loop_bead
if "${step} > ${N}" then "jump SELF end_inner"
    variable x equal ${x0} + ${dbead}
    variable x equal 1 + ${dbead}
    variable x equal 1 + 0.2
    variable y equal ${y0} + 1.5*${Ny}
    variable y equal 1 + 1.5*${Ny}
    variable y equal 1 + 1.5*4
    variable z equal ${z0} + 1.5*${Nz}
    variable z equal 2 + 1.5*${Nz}
    variable z equal 2 + 1.5*1
    create_atoms 2 single ${x} ${y} ${z}
    create_atoms 2 single 1.2 ${y} ${z}
    create_atoms 2 single 1.2 7 ${z}
    create_atoms 2 single 1.2 7 3.5
Created 1 atoms
  using lattice units in orthogonal box = (0 0 0) to (92.831777 92.831777 92.831777)
  create_atoms CPU = 0.000 seconds
    variable x0 equal ${x}
    variable x0 equal 1.2
    variable step equal ${step} + 1
    variable step equal 1 + 1
jump SELF loop_bead
if "${step} > ${N}" then "jump SELF end_inner"
    variable x equal ${x0} + ${dbead}
    variable x equal 1.2 + ${dbead}
    variable x equal 1.2 + 0.2
    variable y equal ${y0} + 1.5*${Ny}
    variable y equal 1 + 1.5*${Ny}
    variable y equal 1 + 1.5*4
    variable z equal ${z0} + 1.5*${Nz}
    variable z equal 2 + 1.5*${Nz}
    variable z equal 2 + 1.5*1
    create_atoms 2 single ${x} ${y} ${z}
    create_atoms 2 single 1.4 ${y} ${z}
    create_atoms 2 single 1.4 7 ${z}
    create_atoms 2 single 1.4 7 3.5
Created 1 atoms
  using lattice units in orthogonal box = (0 0 0) to (92.831777 92.831777 92.831777)
  create_atoms CPU = 0.000 seconds
    variable x0 equal ${x}
    variable x0 equal 1.4
    variable step equal ${step} + 1
    variable step equal 2 + 1
jump SELF loop_bead
if "${step} > ${N}" then "jump SELF end_inner"
    variable x equal ${x0} + ${dbead}
    variable x equal 1.4 + ${dbead}
    variable x equal 1.4 + 0.2
    variable y equal ${y0} + 1.5*${Ny}
    variable y equal 1 + 1.5*${Ny}
    variable y equal 1 + 1.5*4
    variable z equal ${z0} + 1.5*${Nz}
    variable z equal 2 + 1.5*${Nz}
    variable z equal 2 + 1.5*1
    create_atoms 2 single ${x} ${y} ${z}
    create_atoms 2 single 1.6 ${y} ${z}
    create_atoms 2 single 1.6 7 ${z}
    create_atoms 2 single 1.6 7 3.5
Created 1 atoms
  using lattice units in orthogonal box = (0 0 0) to (92.831777 92.831777 92.831777)
  create_atoms CPU = 0.000 seconds
    variable x0 equal ${x}
    variable x0 equal 1.6
    variable step equal ${step} + 1
    variable step equal 3 + 1
jump SELF loop_bead
if "${step} > ${N}" then "jump SELF end_inner"
    variable x equal ${x0} + ${dbead}
    variable x equal 1.6 + ${dbead}
    variable x equal 1.6 + 0.2
    variable y equal ${y0} + 1.5*${Ny}
    variable y equal 1 + 1.5*${Ny}
    variable y equal 1 + 1.5*4
    variable z equal ${z0} + 1.5*${Nz}
    variable z equal 2 + 1.5*${Nz}
    variable z equal 2 + 1.5*1
    create_atoms 2 single ${x} ${y} ${z}
    create_atoms 2 single 1.8 ${y} ${z}
    create_atoms 2 single 1.8 7 ${z}
    create_atoms 2 single 1.8 7 3.5
Created 1 atoms
  using lattice units in orthogonal box = (0 0 0) to (92.831777 92.831777 92.831777)
  create_atoms CPU = 0.000 seconds
    variable x0 equal ${x}
    variable x0 equal 1.8
    variable step equal ${step} + 1
    variable step equal 4 + 1
jump SELF loop_bead
if "${step} > ${N}" then "jump SELF end_inner"
    variable x equal ${x0} + ${dbead}
    variable x equal 1.8 + ${dbead}
    variable x equal 1.8 + 0.2
    variable y equal ${y0} + 1.5*${Ny}
    variable y equal 1 + 1.5*${Ny}
    variable y equal 1 + 1.5*4
    variable z equal ${z0} + 1.5*${Nz}
    variable z equal 2 + 1.5*${Nz}
    variable z equal 2 + 1.5*1
    create_atoms 2 single ${x} ${y} ${z}
    create_atoms 2 single 2 ${y} ${z}
    create_atoms 2 single 2 7 ${z}
    create_atoms 2 single 2 7 3.5
Created 1 atoms
  using lattice units in orthogonal box = (0 0 0) to (92.831777 92.831777 92.831777)
  create_atoms CPU = 0.000 seconds
    variable x0 equal ${x}
    variable x0 equal 2
    variable step equal ${step} + 1
    variable step equal 5 + 1
jump SELF loop_bead
if "${step} > ${N}" then "jump SELF end_inner"
    variable x equal ${x0} + ${dbead}
    variable x equal 2 + ${dbead}
    variable x equal 2 + 0.2
    variable y equal ${y0} + 1.5*${Ny}
    variable y equal 1 + 1.5*${Ny}
    variable y equal 1 + 1.5*4
    variable z equal ${z0} + 1.5*${Nz}
    variable z equal 2 + 1.5*${Nz}
    variable z equal 2 + 1.5*1
    create_atoms 2 single ${x} ${y} ${z}
    create_atoms 2 single 2.2 ${y} ${z}
    create_atoms 2 single 2.2 7 ${z}
    create_atoms 2 single 2.2 7 3.5
Created 1 atoms
  using lattice units in orthogonal box = (0 0 0) to (92.831777 92.831777 92.831777)
  create_atoms CPU = 0.000 seconds
    variable x0 equal ${x}
    variable x0 equal 2.2
    variable step equal ${step} + 1
    variable step equal 6 + 1
jump SELF loop_bead
if "${step} > ${N}" then "jump SELF end_inner"
    variable x equal ${x0} + ${dbead}
    variable x equal 2.2 + ${dbead}
    variable x equal 2.2 + 0.2
    variable y equal ${y0} + 1.5*${Ny}
    variable y equal 1 + 1.5*${Ny}
    variable y equal 1 + 1.5*4
    variable z equal ${z0} + 1.5*${Nz}
    variable z equal 2 + 1.5*${Nz}
    variable z equal 2 + 1.5*1
    create_atoms 2 single ${x} ${y} ${z}
    create_atoms 2 single 2.4 ${y} ${z}
    create_atoms 2 single 2.4 7 ${z}
    create_atoms 2 single 2.4 7 3.5
Created 1 atoms
  using lattice units in orthogonal box = (0 0 0) to (92.831777 92.831777 92.831777)
  create_atoms CPU = 0.000 seconds
    variable x0 equal ${x}
    variable x0 equal 2.4
    variable step equal ${step} + 1
    variable step equal 7 + 1
jump SELF loop_bead
if "${step} > ${N}" then "jump SELF end_inner"
    variable x equal ${x0} + ${dbead}
    variable x equal 2.4 + ${dbead}
    variable x equal 2.4 + 0.2
    variable y equal ${y0} + 1.5*${Ny}
    variable y equal 1 + 1.5*${Ny}
    variable y equal 1 + 1.5*4
    variable z equal ${z0} + 1.5*${Nz}
    variable z equal 2 + 1.5*${Nz}
    variable z equal 2 + 1.5*1
    create_atoms 2 single ${x} ${y} ${z}
    create_atoms 2 single 2.6 ${y} ${z}
    create_atoms 2 single 2.6 7 ${z}
    create_atoms 2 single 2.6 7 3.5
Created 1 atoms
  using lattice units in orthogonal box = (0 0 0) to (92.831777 92.831777 92.831777)
  create_atoms CPU = 0.000 seconds
[...]
367000  ekin = 43.2166243090848 | epot = 0.181205982231287 | erot = 43.0494137860105 | ebond = 1.77618046013431 | etot = 88.2234245374609
368000  ekin = 43.8050229227723 | epot = 0.122248608918373 | erot = 41.9938780840236 | ebond = 1.78658362085004 | etot = 87.7077332365643
369000  ekin = 41.6904211677706 | epot = 0.143923169284073 | erot = 41.6938310742721 | ebond = 1.71833495496587 | etot = 85.2465103662926
370000  ekin = 42.8012680263628 | epot = 0.0815796313019397 | erot = 41.7790179894543 | ebond = 1.83784065510451 | etot = 86.4997063022236
371000  ekin = 42.751315111632 | epot = 0.300691339642255 | erot = 41.2937243027833 | ebond = 1.61674442477599 | etot = 85.9624751788335
372000  ekin = 43.1754338518184 | epot = 0.151726900681518 | erot = 42.6845856937859 | ebond = 1.71956415080495 | etot = 87.7313105970908
373000  ekin = 41.7140049270128 | epot = 0.299227687180597 | erot = 42.5227297402141 | ebond = 1.71255140730795 | etot = 86.2485137617155
374000  ekin = 42.43666435641 | epot = 0.234733332440867 | erot = 42.2483839073948 | ebond = 1.46385243686731 | etot = 86.383634033113
375000  ekin = 42.2054803320968 | epot = 0.18514963472099 | erot = 42.5565847943683 | ebond = 1.75374191827176 | etot = 86.7009566794578
376000  ekin = 41.4880386266914 | epot = 0.122701668899317 | erot = 43.086691294474 | ebond = 1.87255190773068 | etot = 86.5699834977954
377000  ekin = 42.9537957518321 | epot = 0.160778428673458 | erot = 42.6925607666424 | ebond = 1.85145006915797 | etot = 87.6585850163059
378000  ekin = 43.4524364302149 | epot = 0.096760637193246 | erot = 41.6584096367453 | ebond = 1.8602784899365 | etot = 87.0678851940899
379000  ekin = 43.7254073639577 | epot = 0.0829545913779363 | erot = 42.2612069545653 | ebond = 1.86901837785675 | etot = 87.9385872877576
380000  ekin = 44.5964851960153 | epot = 0.17041936029763 | erot = 41.8449821584771 | ebond = 1.99611615397197 | etot = 88.608002868762
381000  ekin = 44.0911066528399 | epot = 0.164144442647049 | erot = 41.4822325141789 | ebond = 1.80474557759646 | etot = 87.5422291872623
382000  ekin = 42.7651760504376 | epot = 0.174982415587687 | erot = 42.5811281313315 | ebond = 1.85168013093898 | etot = 87.3729667282957
383000  ekin = 42.3271762101732 | epot = 0.0918228487740165 | erot = 42.5392318583125 | ebond = 1.65533329558807 | etot = 86.6135642128478
384000  ekin = 42.5615727093186 | epot = 0.163772410475593 | erot = 41.9657637555942 | ebond = 1.69541794485921 | etot = 86.3865268202476
385000  ekin = 41.9858567581009 | epot = 0.112174415592934 | erot = 43.2600419852998 | ebond = 1.46894218944749 | etot = 86.8270153484411
386000  ekin = 41.8114835988525 | epot = 0.158130981086852 | erot = 42.6564664618666 | ebond = 1.55570268851517 | etot = 86.181783730321
387000  ekin = 41.8186591132894 | epot = 0.0500650177136573 | erot = 43.0697297209499 | ebond = 1.80906003142683 | etot = 86.7475138833798
388000  ekin = 41.5436360185288 | epot = 0.143484539774419 | erot = 42.8083440620874 | ebond = 1.65757923102237 | etot = 86.153043851413
389000  ekin = 42.3355292008498 | epot = 0.135865611257635 | erot = 43.0219673205538 | ebond = 1.47588147010847 | etot = 86.9692436027697
390000  ekin = 41.7205817537268 | epot = 0.122434107469824 | erot = 42.0344494917941 | ebond = 1.50057606855826 | etot = 85.378041421549
391000  ekin = 41.8475556185988 | epot = 0.184155107520265 | erot = 41.6218419255821 | ebond = 1.69418928217467 | etot = 85.3477419338759
392000  ekin = 43.2033933230172 | epot = 0.161578846993058 | erot = 42.2099561402565 | ebond = 1.68045343762066 | etot = 87.2553817478874
393000  ekin = 43.2494455563681 | epot = 0.21953102654489 | erot = 42.4407431226282 | ebond = 1.82189989667091 | etot = 87.7316196022121
394000  ekin = 42.1523410431365 | epot = 0.159745754890667 | erot = 43.1355744961911 | ebond = 1.7540697116227 | etot = 87.201731005841
395000  ekin = 42.7502818919615 | epot = 0.118161811828566 | erot = 41.4232074353902 | ebond = 1.59170402348648 | etot = 85.8833551626667
396000  ekin = 42.494410330588 | epot = 0.21979385202333 | erot = 43.0107429774329 | ebond = 1.59964257913445 | etot = 87.3245897391786
397000  ekin = 44.2343209544367 | epot = 0.144013298671234 | erot = 42.3676592047756 | ebond = 1.7328858608805 | etot = 88.478879318764
398000  ekin = 43.830365355363 | epot = 0.142058322495906 | erot = 42.099957825699 | ebond = 1.77695086100775 | etot = 87.8493323645657
399000  ekin = 44.0920446606491 | epot = 0.173166243807016 | erot = 42.7132702006713 | ebond = 1.87288345433578 | etot = 88.8513645594632
400000  ekin = 42.8990164739238 | epot = 0.10391649713585 | erot = 41.3677022260915 | ebond = 1.76714955668977 | etot = 86.137784753841
401000  ekin = 43.5234949693043 | epot = 0.194240958126497 | erot = 42.0156170800609 | ebond = 1.55845708896191 | etot = 87.2918100964536
402000  ekin = 42.7977145033804 | epot = 0.116031123394267 | erot = 42.8719414984219 | ebond = 1.6118217471577 | etot = 87.3975088723543
403000  ekin = 41.9029334000725 | epot = 0.152530936063201 | erot = 42.5180003904961 | ebond = 1.72618203570957 | etot = 86.2996467623413
404000  ekin = 42.59768658303 | epot = 0.12597593346709 | erot = 42.9273446048404 | ebond = 1.85367347939829 | etot = 87.5046806007358
405000  ekin = 41.4718337404712 | epot = 0.124606049860984 | erot = 42.4062144626772 | ebond = 1.75299359061054 | etot = 85.7556478436199
406000  ekin = 43.6183078885419 | epot = 0.209340901442814 | erot = 42.3127266861926 | ebond = 1.82304695610396 | etot = 87.9634224322812
407000  ekin = 42.3643221831979 | epot = 0.218296820130029 | erot = 42.2502531298405 | ebond = 1.70334023953353 | etot = 86.536212372702
408000  ekin = 41.2020594492678 | epot = 0.140301378411963 | erot = 42.2332581552752 | ebond = 1.73531468754117 | etot = 85.3109336704961
409000  ekin = 41.5864966416964 | epot = 0.134899517087088 | erot = 41.8355235234739 | ebond = 1.75103064019812 | etot = 85.3079503224554
410000  ekin = 42.5918428419856 | epot = 0.106516494410784 | erot = 41.5041300507863 | ebond = 1.7835499678793 | etot = 85.9860393550619
411000  ekin = 42.2725259541457 | epot = 0.157523064467153 | erot = 42.8982171175648 | ebond = 1.64127835092744 | etot = 86.9695444871051
412000  ekin = 41.8746302973676 | epot = 0.112708978228036 | erot = 41.7376737994786 | ebond = 1.93576989443982 | etot = 85.660782969514
413000  ekin = 41.7574923361267 | epot = 0.09427352323597 | erot = 43.0431997652943 | ebond = 1.89998127980759 | etot = 86.7949469044645
414000  ekin = 42.3595208709675 | epot = 0.14692819177484 | erot = 42.5590794899734 | ebond = 1.66690616846258 | etot = 86.7324347211783
415000  ekin = 43.687019233622 | epot = 0.267126626502543 | erot = 43.0323758121359 | ebond = 1.62376521032635 | etot = 88.6102868825868
416000  ekin = 43.2919014118263 | epot = 0.20000076990265 | erot = 41.7746645022132 | ebond = 1.79194654763027 | etot = 87.0585132315723
417000  ekin = 42.8446816488014 | epot = 0.152347696186354 | erot = 41.7521586107299 | ebond = 1.55078758546636 | etot = 86.299975541184
418000  ekin = 42.5675988701924 | epot = 0.196454370555431 | erot = 42.7895181454535 | ebond = 1.63396995455123 | etot = 87.1875413407526
419000  ekin = 41.9932678927725 | epot = 0.244138044031149 | erot = 42.8208750698846 | ebond = 1.64369307071614 | etot = 86.7019740774044
420000  ekin = 42.2661875770414 | epot = 0.178804615005055 | erot = 41.6624642627797 | ebond = 1.46832754988282 | etot = 85.5757840047089
421000  ekin = 42.9337421890814 | epot = 0.161359352401411 | erot = 41.9901191274302 | ebond = 1.54000570314874 | etot = 86.6252263720617
422000  ekin = 42.3147441397827 | epot = 0.217917763527675 | erot = 42.6542287472547 | ebond = 1.5560470174161 | etot = 86.7429376679811
423000  ekin = 42.2427276669462 | epot = 0.134823231746618 | erot = 42.0613357332157 | ebond = 1.46361058217109 | etot = 85.9024972140796
424000  ekin = 41.7135771767329 | epot = 0.133512420632091 | erot = 41.343847468082 | ebond = 1.74461576544058 | etot = 84.9355528308876
425000  ekin = 42.5699476537285 | epot = 0.168605209184102 | erot = 41.7890721455813 | ebond = 1.821232309198 | etot = 86.3488573176919
426000  ekin = 43.0102549735378 | epot = 0.126661726310609 | erot = 41.2400040159976 | ebond = 1.86217372472062 | etot = 86.2390944405666
427000  ekin = 42.8803445152276 | epot = 0.129835759401171 | erot = 42.2258686971771 | ebond = 1.73954487742858 | etot = 86.9755938492345
428000  ekin = 41.8645615349345 | epot = 0.122672238638464 | erot = 42.715650873585 | ebond = 1.63334465502615 | etot = 86.3362293021841
429000  ekin = 41.6245875569906 | epot = 0.115552519633223 | erot = 42.510912687899 | ebond = 1.52254754637902 | etot = 85.7736003109018
430000  ekin = 41.5383944181266 | epot = 0.0712234990893415 | erot = 42.540012957844 | ebond = 1.72058881366148 | etot = 85.8702196887214
431000  ekin = 42.8244984050979 | epot = 0.101488500825271 | erot = 41.8501334919341 | ebond = 1.59615745146159 | etot = 86.3722778493189
432000  ekin = 41.8918383563958 | epot = 0.33296724800258 | erot = 43.3303441312554 | ebond = 1.5419760719094 | etot = 87.0971258075631
433000  ekin = 42.1873015680851 | epot = 0.104626093020158 | erot = 43.0364689848661 | ebond = 1.81843275945559 | etot = 87.146829405427
434000  ekin = 42.5525001539536 | epot = 0.129987075946083 | erot = 42.7242109531855 | ebond = 1.57904413184813 | etot = 86.9857423149333
435000  ekin = 43.2052588011768 | epot = 0.139214354229266 | erot = 42.589555278784 | ebond = 1.68990825338199 | etot = 87.6239366875721
436000  ekin = 42.7918918844585 | epot = 0.175659940182616 | erot = 42.1800730479219 | ebond = 1.7645020500052 | etot = 86.9121269225683
437000  ekin = 42.5403142379344 | epot = 0.131731525796851 | erot = 42.9524074380697 | ebond = 1.84843569999669 | etot = 87.4728889017976
438000  ekin = 42.546430748426 | epot = 0.173726448610875 | erot = 42.6512009684425 | ebond = 1.8561150754523 | etot = 87.2274732409316
439000  ekin = 42.2909580411064 | epot = 0.220897008815233 | erot = 42.6536420415958 | ebond = 1.93411343053227 | etot = 87.0996105220497
440000  ekin = 41.8040385180952 | epot = 0.111764193051391 | erot = 42.7083964451708 | ebond = 1.77181580366496 | etot = 86.3960149599824
441000  ekin = 41.6953093360256 | epot = 0.116216809635826 | erot = 42.7921645063977 | ebond = 1.8854161580923 | etot = 86.4891068101514
442000  ekin = 41.7176208942211 | epot = 0.154185876926763 | erot = 41.2103519567363 | ebond = 1.83209857335987 | etot = 84.914257301244
443000  ekin = 41.9517987684678 | epot = 0.174272684174741 | erot = 42.754084219934 | ebond = 1.81685694710481 | etot = 86.6970126196813
444000  ekin = 42.9521389049788 | epot = 0.166607487130338 | erot = 42.6362641740693 | ebond = 1.87114532419196 | etot = 87.6261558903703
445000  ekin = 42.3279701754144 | epot = 0.146579574112311 | erot = 42.8336921388672 | ebond = 1.75377199211864 | etot = 87.0620138805125
446000  ekin = 41.7836313919708 | epot = 0.209225884142561 | erot = 41.8850943728157 | ebond = 1.84750699564516 | etot = 85.7254586445741
447000  ekin = 41.7621606017575 | epot = 0.167621513553956 | erot = 42.4772563019614 | ebond = 1.8305403251498 | etot = 86.2375787424226
448000  ekin = 43.3562921066721 | epot = 0.227117006478491 | erot = 43.2314567147592 | ebond = 1.93491419312923 | etot = 88.749780021039
449000  ekin = 42.9007653021402 | epot = 0.178927662388465 | erot = 42.0343631689809 | ebond = 1.75764596994023 | etot = 86.8717021034498
450000  ekin = 43.1434100409011 | epot = 0.13443268416103 | erot = 42.3823633754083 | ebond = 1.8683564427517 | etot = 87.5285625432221
451000  ekin = 42.5678509684532 | epot = 0.11996831280059 | erot = 42.5076119332458 | ebond = 1.76088551231519 | etot = 86.9563167268148
452000  ekin = 42.9195219968875 | epot = 0.149417847499303 | erot = 43.1759605678985 | ebond = 1.83612232788275 | etot = 88.0810227401681
453000  ekin = 42.1420957473317 | epot = 0.113627734986009 | erot = 41.5718569992404 | ebond = 1.81166399754781 | etot = 85.6392444791059
454000  ekin = 42.5697153138859 | epot = 0.163969064943174 | erot = 43.382332413577 | ebond = 1.73427482381417 | etot = 87.8502916162203
455000  ekin = 43.6667483890001 | epot = 0.158273648152869 | erot = 43.369604565109 | ebond = 1.77412265026157 | etot = 88.9687492525236
456000  ekin = 41.8977103595474 | epot = 0.243837145053879 | erot = 42.6782713971526 | ebond = 1.82736183209282 | etot = 86.6471807338466
457000  ekin = 43.1539216050584 | epot = 0.157845802501478 | erot = 42.7057032378968 | ebond = 1.82073738341824 | etot = 87.8382080288749
458000  ekin = 43.4625038605282 | epot = 0.136921515458924 | erot = 41.8593224383896 | ebond = 1.83193661689586 | etot = 87.2906844312725
459000  ekin = 43.1693857703441 | epot = 0.20898008378478 | erot = 42.235845622702 | ebond = 1.80920149958629 | etot = 87.4234129764172
460000  ekin = 42.3826765095044 | epot = 0.127383583496578 | erot = 42.0250509467631 | ebond = 1.98129533000043 | etot = 86.5164063697646
461000  ekin = 41.8453210842317 | epot = 0.101019288535872 | erot = 41.5933431051886 | ebond = 1.96788937371987 | etot = 85.507572851676
462000  ekin = 42.1118427804064 | epot = 0.132080269417864 | erot = 44.0673922484677 | ebond = 1.7036311409408 | etot = 88.0149464392328
463000  ekin = 43.0860731522249 | epot = 0.155711293252046 | erot = 42.8464770772108 | ebond = 1.85649684076054 | etot = 87.9447583634483
464000  ekin = 42.4454460610427 | epot = 0.254752084760855 | erot = 41.248071363936 | ebond = 1.99264011788344 | etot = 85.940909627623
465000  ekin = 43.2636755082544 | epot = 0.181967401613102 | erot = 43.0787009976141 | ebond = 2.0180796855583 | etot = 88.5424235930398
466000  ekin = 43.2510639088032 | epot = 0.12299004661121 | erot = 41.7800326016083 | ebond = 1.69408241453614 | etot = 86.8481689715588
467000  ekin = 42.5591905612505 | epot = 0.180597274719252 | erot = 42.7882400356403 | ebond = 1.5484862077532 | etot = 87.0765140793633
468000  ekin = 41.9013089163148 | epot = 0.199652928754238 | erot = 42.2449933314113 | ebond = 1.60411973107391 | etot = 85.9500749075542
469000  ekin = 41.6943193791718 | epot = 0.162520285511675 | erot = 41.705912252409 | ebond = 1.80494972675774 | etot = 85.3677016438502
470000  ekin = 42.8650020164931 | epot = 0.177467430338867 | erot = 42.8645004067242 | ebond = 1.64890735061425 | etot = 87.5558772041704
471000  ekin = 42.4261397374867 | epot = 0.166428740755794 | erot = 42.163839447373 | ebond = 1.57739668156093 | etot = 86.3338046071764
472000  ekin = 42.3473981959761 | epot = 0.168426771946225 | erot = 42.6301904614566 | ebond = 1.64430647461599 | etot = 86.790321903995
473000  ekin = 42.9291935100965 | epot = 0.180850670530375 | erot = 42.1258675758979 | ebond = 1.61404259252839 | etot = 86.8499543490532
474000  ekin = 43.3297863887118 | epot = 0.194982415863724 | erot = 42.631247587391 | ebond = 1.66717742005438 | etot = 87.8231938120209
475000  ekin = 42.9929844334951 | epot = 0.130086941024853 | erot = 42.2077304378933 | ebond = 1.86423010204445 | etot = 87.1950319144577
476000  ekin = 42.0536876394135 | epot = 0.193732510266666 | erot = 41.9736070382559 | ebond = 1.90722579504953 | etot = 86.1282529829855
477000  ekin = 42.6014984651273 | epot = 0.100058655424035 | erot = 42.9144299607101 | ebond = 1.6396167850492 | etot = 87.2556038663106
478000  ekin = 42.8076906323527 | epot = 0.210898538916591 | erot = 41.8113341894715 | ebond = 1.69192566727291 | etot = 86.5218490280137
479000  ekin = 42.6307981765725 | epot = 0.1928274928256 | erot = 43.5728979080891 | ebond = 1.93944060926542 | etot = 88.3359641867526
480000  ekin = 41.6726579758923 | epot = 0.110588008809586 | erot = 43.655714122359 | ebond = 1.90507612306016 | etot = 87.344036230121
481000  ekin = 42.0483608592288 | epot = 0.157974873082045 | erot = 42.1076091645233 | ebond = 1.96689272866314 | etot = 86.2808376254973
482000  ekin = 41.9668646524199 | epot = 0.0926975172007447 | erot = 41.1950640290119 | ebond = 1.87249155290347 | etot = 85.127117751536
483000  ekin = 43.0324212279676 | epot = 0.185097955125716 | erot = 42.0413154110238 | ebond = 1.68842461919647 | etot = 86.9472592133136
484000  ekin = 42.7558508867158 | epot = 0.187009921715906 | erot = 42.4168017490634 | ebond = 1.6077912033731 | etot = 86.9674537608683
485000  ekin = 41.6960472939024 | epot = 0.140721520330635 | erot = 42.3351499352674 | ebond = 1.75104783844008 | etot = 85.9229665879404
486000  ekin = 42.1843299319873 | epot = 0.209821678916458 | erot = 43.5100122974089 | ebond = 1.8579913677258 | etot = 87.7621552760385
487000  ekin = 42.4840282398091 | epot = 0.185388386706454 | erot = 41.392097853259 | ebond = 1.54964768995577 | etot = 85.6111621697304
488000  ekin = 41.8067755473751 | epot = 0.121348026053287 | erot = 42.0551757574707 | ebond = 1.65463416099654 | etot = 85.6379334918957
489000  ekin = 41.8907147073499 | epot = 0.183192670350487 | erot = 42.5713675074489 | ebond = 1.67801611407347 | etot = 86.3232909992228
490000  ekin = 41.1209443794291 | epot = 0.177518104193839 | erot = 42.2765544219958 | ebond = 1.71986190284189 | etot = 85.2948788084607
491000  ekin = 41.5391655184605 | epot = 0.110264966678403 | erot = 41.7648514256571 | ebond = 1.85631840947659 | etot = 85.2706003202725
492000  ekin = 42.925376268779 | epot = 0.107043032916642 | erot = 42.7098621075434 | ebond = 1.73007643210538 | etot = 87.4723578413444
493000  ekin = 42.8473651845073 | epot = 0.101616747013628 | erot = 42.6552569276531 | ebond = 1.70041845190224 | etot = 87.3046573110763
494000  ekin = 42.9016295946429 | epot = 0.203612418148848 | erot = 42.1172309972161 | ebond = 1.56143645261194 | etot = 86.7839094626197
495000  ekin = 42.0352249360057 | epot = 0.159735872886477 | erot = 42.9397238719285 | ebond = 1.80485263684168 | etot = 86.9395373176624
496000  ekin = 43.3259661944584 | epot = 0.202800413391813 | erot = 42.9608662713849 | ebond = 1.82528485855012 | etot = 88.3149177377853
497000  ekin = 42.4238622003971 | epot = 0.144667046527343 | erot = 42.5652115423364 | ebond = 1.70475743229197 | etot = 86.8384982215528
498000  ekin = 42.7043291637317 | epot = 0.13679074107805 | erot = 42.0195983211451 | ebond = 1.69336982104916 | etot = 86.554088047004
499000  ekin = 42.428274119824 | epot = 0.164912577114364 | erot = 41.0116039291381 | ebond = 1.65851276063286 | etot = 85.2633033867094
500000  ekin = 43.6642711199431 | epot = 0.228158453904363 | erot = 42.7328401612896 | ebond = 1.80231628363782 | etot = 88.4275860187749
    500000   0.010289683    8.0621362e-05  0.00063686088  0.016146553    2.7214142e-05
Loop time of 145.764 on 2 procs for 500000 steps with 2830 atoms

Performance: 296368.591 tau/day, 3430.192 timesteps/s, 9.707 Matom-step/s
178.1% CPU use with 1 MPI tasks x 2 OpenMP threads

MPI task timing breakdown:
Section |  min time  |  avg time  |  max time  |%varavg| %total
---------------------------------------------------------------
Pair    | 16.244     | 16.244     | 16.244     |   0.0 | 11.14
Bond    | 14.993     | 14.993     | 14.993     |   0.0 | 10.29
Neigh   | 0.18691    | 0.18691    | 0.18691    |   0.0 |  0.13
Comm    | 3.8659     | 3.8659     | 3.8659     |   0.0 |  2.65
Output  | 3.6463     | 3.6463     | 3.6463     |   0.0 |  2.50
Modify  | 63.443     | 63.443     | 63.443     |   0.0 | 43.52
Other   |            | 43.39      |            |       | 29.76

Nlocal:           2830 ave        2830 max        2830 min
Histogram: 1 0 0 0 0 0 0 0 0 0
Nghost:            288 ave         288 max         288 min
Histogram: 1 0 0 0 0 0 0 0 0 0
Neighs:              0 ave           0 max           0 min
Histogram: 1 0 0 0 0 0 0 0 0 0
FullNghs:         4186 ave        4186 max        4186 min
Histogram: 1 0 0 0 0 0 0 0 0 0

Total # of neighbors = 4186
Ave neighs/atom = 1.4791519
Ave special neighs/atom = 0.71236749
Neighbor list builds = 247
Dangerous builds = 0

write_data data_out.* nocoeff
System init for write_data ...
Generated 0 of 1 mixed pair_coeff terms from geometric mixing rule

Total wall time: 0:02:26
