LAMMPS (10 Dec 2025 - Development - patch_10Sep2025-1417-g836e542f7a)
OMP_NUM_THREADS environment is not set. Defaulting to 1 thread.
  using 1 OpenMP thread(s) per MPI task
###
# Box and units  (use LJ units and periodic boundaries)
###

units           lj
atom_style      hybrid bond ellipsoid
WARNING: Atom style hybrid defines both, per-type and per-atom masses; both must be set, but only per-atom masses will be used (src/atom_vec_hybrid.cpp:132)
dimension	    3
boundary	    p p p
newton 		    on

lattice		    diamond 0.01
Lattice spacing in x,y,z = 9.2831777 9.2831777 9.2831777
region		    box block 0 10 0 10 0 10
create_box	    2 box bond/types 1 extra/bond/per/atom 2
Created orthogonal box = (0 0 0) to (92.831777 92.831777 92.831777)
  1 by 1 by 1 MPI processor grid
#create_box      2 box

###################################################################
# Create Atoms in empty space
#
region         lower block 1 9 1 9 1 3
create_atoms   1 region lower
Created 1235 atoms
  using lattice units in orthogonal box = (0 0 0) to (92.831777 92.831777 92.831777)
  create_atoms CPU = 0.001 seconds
region         upper block 1 9 1 9 7 9
create_atoms   1 region upper
Created 1235 atoms
  using lattice units in orthogonal box = (0 0 0) to (92.831777 92.831777 92.831777)
  create_atoms CPU = 0.000 seconds

###################################################################
# Create Polymers
#
variable N        equal 30   # Number of beads per polymer
variable Ny_val   equal 4    # Number of polymers placed in y
variable Ny       loop ${Ny_val}
variable Ny       loop 4
variable Nz       loop 3     # Number of polymers placed in z
variable dbead    equal 0.2  # Distance Between Beads
variable step     equal 1    # Step size for loop

# Initialise the first bead
variable x0 equal 1.0
variable y0 equal 1.0
variable z0 equal 2.0

# Create the remaining beads
label loop_z
label loop_y
label loop_bead
if "${step} > ${N}" then "jump SELF end_inner"
    variable x equal ${x0} + ${dbead}
    variable x equal 1 + ${dbead}
    variable x equal 1 + 0.2
    variable y equal ${y0} + 1.5*${Ny}
    variable y equal 1 + 1.5*${Ny}
    variable y equal 1 + 1.5*1
    variable z equal ${z0} + 1.5*${Nz}
    variable z equal 2 + 1.5*${Nz}
    variable z equal 2 + 1.5*1
    create_atoms 2 single ${x} ${y} ${z}
    create_atoms 2 single 1.2 ${y} ${z}
    create_atoms 2 single 1.2 2.5 ${z}
    create_atoms 2 single 1.2 2.5 3.5
Created 1 atoms
  using lattice units in orthogonal box = (0 0 0) to (92.831777 92.831777 92.831777)
  create_atoms CPU = 0.000 seconds
    variable x0 equal ${x}
    variable x0 equal 1.2
    variable step equal ${step} + 1
    variable step equal 1 + 1
jump SELF loop_bead
if "${step} > ${N}" then "jump SELF end_inner"
    variable x equal ${x0} + ${dbead}
    variable x equal 1.2 + ${dbead}
    variable x equal 1.2 + 0.2
    variable y equal ${y0} + 1.5*${Ny}
    variable y equal 1 + 1.5*${Ny}
    variable y equal 1 + 1.5*1
    variable z equal ${z0} + 1.5*${Nz}
    variable z equal 2 + 1.5*${Nz}
    variable z equal 2 + 1.5*1
    create_atoms 2 single ${x} ${y} ${z}
    create_atoms 2 single 1.4 ${y} ${z}
    create_atoms 2 single 1.4 2.5 ${z}
    create_atoms 2 single 1.4 2.5 3.5
Created 1 atoms
  using lattice units in orthogonal box = (0 0 0) to (92.831777 92.831777 92.831777)
  create_atoms CPU = 0.000 seconds
    variable x0 equal ${x}
    variable x0 equal 1.4
    variable step equal ${step} + 1
    variable step equal 2 + 1
jump SELF loop_bead
if "${step} > ${N}" then "jump SELF end_inner"
    variable x equal ${x0} + ${dbead}
    variable x equal 1.4 + ${dbead}
    variable x equal 1.4 + 0.2
    variable y equal ${y0} + 1.5*${Ny}
    variable y equal 1 + 1.5*${Ny}
    variable y equal 1 + 1.5*1
    variable z equal ${z0} + 1.5*${Nz}
    variable z equal 2 + 1.5*${Nz}
    variable z equal 2 + 1.5*1
    create_atoms 2 single ${x} ${y} ${z}
    create_atoms 2 single 1.6 ${y} ${z}
    create_atoms 2 single 1.6 2.5 ${z}
    create_atoms 2 single 1.6 2.5 3.5
Created 1 atoms
  using lattice units in orthogonal box = (0 0 0) to (92.831777 92.831777 92.831777)
  create_atoms CPU = 0.000 seconds
    variable x0 equal ${x}
    variable x0 equal 1.6
    variable step equal ${step} + 1
    variable step equal 3 + 1
jump SELF loop_bead
if "${step} > ${N}" then "jump SELF end_inner"
    variable x equal ${x0} + ${dbead}
    variable x equal 1.6 + ${dbead}
    variable x equal 1.6 + 0.2
    variable y equal ${y0} + 1.5*${Ny}
    variable y equal 1 + 1.5*${Ny}
    variable y equal 1 + 1.5*1
    variable z equal ${z0} + 1.5*${Nz}
    variable z equal 2 + 1.5*${Nz}
    variable z equal 2 + 1.5*1
    create_atoms 2 single ${x} ${y} ${z}
    create_atoms 2 single 1.8 ${y} ${z}
    create_atoms 2 single 1.8 2.5 ${z}
    create_atoms 2 single 1.8 2.5 3.5
Created 1 atoms
  using lattice units in orthogonal box = (0 0 0) to (92.831777 92.831777 92.831777)
  create_atoms CPU = 0.000 seconds
    variable x0 equal ${x}
    variable x0 equal 1.8
    variable step equal ${step} + 1
    variable step equal 4 + 1
jump SELF loop_bead
if "${step} > ${N}" then "jump SELF end_inner"
    variable x equal ${x0} + ${dbead}
    variable x equal 1.8 + ${dbead}
    variable x equal 1.8 + 0.2
    variable y equal ${y0} + 1.5*${Ny}
    variable y equal 1 + 1.5*${Ny}
    variable y equal 1 + 1.5*1
    variable z equal ${z0} + 1.5*${Nz}
    variable z equal 2 + 1.5*${Nz}
    variable z equal 2 + 1.5*1
    create_atoms 2 single ${x} ${y} ${z}
    create_atoms 2 single 2 ${y} ${z}
    create_atoms 2 single 2 2.5 ${z}
    create_atoms 2 single 2 2.5 3.5
Created 1 atoms
  using lattice units in orthogonal box = (0 0 0) to (92.831777 92.831777 92.831777)
  create_atoms CPU = 0.000 seconds
    variable x0 equal ${x}
    variable x0 equal 2
    variable step equal ${step} + 1
    variable step equal 5 + 1
jump SELF loop_bead
if "${step} > ${N}" then "jump SELF end_inner"
    variable x equal ${x0} + ${dbead}
    variable x equal 2 + ${dbead}
    variable x equal 2 + 0.2
    variable y equal ${y0} + 1.5*${Ny}
    variable y equal 1 + 1.5*${Ny}
    variable y equal 1 + 1.5*1
    variable z equal ${z0} + 1.5*${Nz}
    variable z equal 2 + 1.5*${Nz}
    variable z equal 2 + 1.5*1
    create_atoms 2 single ${x} ${y} ${z}
    create_atoms 2 single 2.2 ${y} ${z}
    create_atoms 2 single 2.2 2.5 ${z}
    create_atoms 2 single 2.2 2.5 3.5
Created 1 atoms
  using lattice units in orthogonal box = (0 0 0) to (92.831777 92.831777 92.831777)
  create_atoms CPU = 0.000 seconds
    variable x0 equal ${x}
    variable x0 equal 2.2
    variable step equal ${step} + 1
    variable step equal 6 + 1
jump SELF loop_bead
if "${step} > ${N}" then "jump SELF end_inner"
    variable x equal ${x0} + ${dbead}
    variable x equal 2.2 + ${dbead}
    variable x equal 2.2 + 0.2
    variable y equal ${y0} + 1.5*${Ny}
    variable y equal 1 + 1.5*${Ny}
    variable y equal 1 + 1.5*1
    variable z equal ${z0} + 1.5*${Nz}
    variable z equal 2 + 1.5*${Nz}
    variable z equal 2 + 1.5*1
    create_atoms 2 single ${x} ${y} ${z}
    create_atoms 2 single 2.4 ${y} ${z}
    create_atoms 2 single 2.4 2.5 ${z}
    create_atoms 2 single 2.4 2.5 3.5
Created 1 atoms
  using lattice units in orthogonal box = (0 0 0) to (92.831777 92.831777 92.831777)
  create_atoms CPU = 0.000 seconds
    variable x0 equal ${x}
    variable x0 equal 2.4
    variable step equal ${step} + 1
    variable step equal 7 + 1
jump SELF loop_bead
if "${step} > ${N}" then "jump SELF end_inner"
    variable x equal ${x0} + ${dbead}
    variable x equal 2.4 + ${dbead}
    variable x equal 2.4 + 0.2
    variable y equal ${y0} + 1.5*${Ny}
    variable y equal 1 + 1.5*${Ny}
    variable y equal 1 + 1.5*1
    variable z equal ${z0} + 1.5*${Nz}
    variable z equal 2 + 1.5*${Nz}
    variable z equal 2 + 1.5*1
    create_atoms 2 single ${x} ${y} ${z}
    create_atoms 2 single 2.6 ${y} ${z}
    create_atoms 2 single 2.6 2.5 ${z}
    create_atoms 2 single 2.6 2.5 3.5
Created 1 atoms
  using lattice units in orthogonal box = (0 0 0) to (92.831777 92.831777 92.831777)
  create_atoms CPU = 0.000 seconds
    variable x0 equal ${x}
    variable x0 equal 2.6
    variable step equal ${step} + 1
    variable step equal 8 + 1
jump SELF loop_bead
if "${step} > ${N}" then "jump SELF end_inner"
    variable x equal ${x0} + ${dbead}
    variable x equal 2.6 + ${dbead}
    variable x equal 2.6 + 0.2
    variable y equal ${y0} + 1.5*${Ny}
    variable y equal 1 + 1.5*${Ny}
    variable y equal 1 + 1.5*1
    variable z equal ${z0} + 1.5*${Nz}
    variable z equal 2 + 1.5*${Nz}
    variable z equal 2 + 1.5*1
    create_atoms 2 single ${x} ${y} ${z}
    create_atoms 2 single 2.8 ${y} ${z}
    create_atoms 2 single 2.8 2.5 ${z}
    create_atoms 2 single 2.8 2.5 3.5
Created 1 atoms
  using lattice units in orthogonal box = (0 0 0) to (92.831777 92.831777 92.831777)
  create_atoms CPU = 0.000 seconds
    variable x0 equal ${x}
    variable x0 equal 2.8
    variable step equal ${step} + 1
    variable step equal 9 + 1
jump SELF loop_bead
if "${step} > ${N}" then "jump SELF end_inner"
    variable x equal ${x0} + ${dbead}
    variable x equal 2.8 + ${dbead}
    variable x equal 2.8 + 0.2
    variable y equal ${y0} + 1.5*${Ny}
    variable y equal 1 + 1.5*${Ny}
    variable y equal 1 + 1.5*1
    variable z equal ${z0} + 1.5*${Nz}
    variable z equal 2 + 1.5*${Nz}
    variable z equal 2 + 1.5*1
    create_atoms 2 single ${x} ${y} ${z}
    create_atoms 2 single 3 ${y} ${z}
    create_atoms 2 single 3 2.5 ${z}
    create_atoms 2 single 3 2.5 3.5
Created 1 atoms
  using lattice units in orthogonal box = (0 0 0) to (92.831777 92.831777 92.831777)
  create_atoms CPU = 0.000 seconds
    variable x0 equal ${x}
    variable x0 equal 3
    variable step equal ${step} + 1
    variable step equal 10 + 1
jump SELF loop_bead
if "${step} > ${N}" then "jump SELF end_inner"
    variable x equal ${x0} + ${dbead}
    variable x equal 3 + ${dbead}
    variable x equal 3 + 0.2
    variable y equal ${y0} + 1.5*${Ny}
    variable y equal 1 + 1.5*${Ny}
    variable y equal 1 + 1.5*1
    variable z equal ${z0} + 1.5*${Nz}
    variable z equal 2 + 1.5*${Nz}
    variable z equal 2 + 1.5*1
    create_atoms 2 single ${x} ${y} ${z}
    create_atoms 2 single 3.2 ${y} ${z}
    create_atoms 2 single 3.2 2.5 ${z}
    create_atoms 2 single 3.2 2.5 3.5
Created 1 atoms
  using lattice units in orthogonal box = (0 0 0) to (92.831777 92.831777 92.831777)
  create_atoms CPU = 0.000 seconds
    variable x0 equal ${x}
    variable x0 equal 3.2
    variable step equal ${step} + 1
    variable step equal 11 + 1
jump SELF loop_bead
if "${step} > ${N}" then "jump SELF end_inner"
    variable x equal ${x0} + ${dbead}
    variable x equal 3.2 + ${dbead}
    variable x equal 3.2 + 0.2
    variable y equal ${y0} + 1.5*${Ny}
    variable y equal 1 + 1.5*${Ny}
    variable y equal 1 + 1.5*1
    variable z equal ${z0} + 1.5*${Nz}
    variable z equal 2 + 1.5*${Nz}
    variable z equal 2 + 1.5*1
    create_atoms 2 single ${x} ${y} ${z}
    create_atoms 2 single 3.4 ${y} ${z}
    create_atoms 2 single 3.4 2.5 ${z}
    create_atoms 2 single 3.4 2.5 3.5
Created 1 atoms
  using lattice units in orthogonal box = (0 0 0) to (92.831777 92.831777 92.831777)
  create_atoms CPU = 0.000 seconds
    variable x0 equal ${x}
    variable x0 equal 3.4
    variable step equal ${step} + 1
    variable step equal 12 + 1
jump SELF loop_bead
if "${step} > ${N}" then "jump SELF end_inner"
    variable x equal ${x0} + ${dbead}
    variable x equal 3.4 + ${dbead}
    variable x equal 3.4 + 0.2
    variable y equal ${y0} + 1.5*${Ny}
    variable y equal 1 + 1.5*${Ny}
    variable y equal 1 + 1.5*1
    variable z equal ${z0} + 1.5*${Nz}
    variable z equal 2 + 1.5*${Nz}
    variable z equal 2 + 1.5*1
    create_atoms 2 single ${x} ${y} ${z}
    create_atoms 2 single 3.6 ${y} ${z}
    create_atoms 2 single 3.6 2.5 ${z}
    create_atoms 2 single 3.6 2.5 3.5
Created 1 atoms
  using lattice units in orthogonal box = (0 0 0) to (92.831777 92.831777 92.831777)
  create_atoms CPU = 0.000 seconds
    variable x0 equal ${x}
    variable x0 equal 3.6
    variable step equal ${step} + 1
    variable step equal 13 + 1
jump SELF loop_bead
if "${step} > ${N}" then "jump SELF end_inner"
    variable x equal ${x0} + ${dbead}
    variable x equal 3.6 + ${dbead}
    variable x equal 3.6 + 0.2
    variable y equal ${y0} + 1.5*${Ny}
    variable y equal 1 + 1.5*${Ny}
    variable y equal 1 + 1.5*1
    variable z equal ${z0} + 1.5*${Nz}
    variable z equal 2 + 1.5*${Nz}
    variable z equal 2 + 1.5*1
    create_atoms 2 single ${x} ${y} ${z}
    create_atoms 2 single 3.8 ${y} ${z}
    create_atoms 2 single 3.8 2.5 ${z}
    create_atoms 2 single 3.8 2.5 3.5
Created 1 atoms
  using lattice units in orthogonal box = (0 0 0) to (92.831777 92.831777 92.831777)
  create_atoms CPU = 0.000 seconds
    variable x0 equal ${x}
    variable x0 equal 3.8
    variable step equal ${step} + 1
    variable step equal 14 + 1
jump SELF loop_bead
if "${step} > ${N}" then "jump SELF end_inner"
    variable x equal ${x0} + ${dbead}
    variable x equal 3.8 + ${dbead}
    variable x equal 3.8 + 0.2
    variable y equal ${y0} + 1.5*${Ny}
    variable y equal 1 + 1.5*${Ny}
    variable y equal 1 + 1.5*1
    variable z equal ${z0} + 1.5*${Nz}
    variable z equal 2 + 1.5*${Nz}
    variable z equal 2 + 1.5*1
    create_atoms 2 single ${x} ${y} ${z}
    create_atoms 2 single 4 ${y} ${z}
    create_atoms 2 single 4 2.5 ${z}
    create_atoms 2 single 4 2.5 3.5
Created 1 atoms
  using lattice units in orthogonal box = (0 0 0) to (92.831777 92.831777 92.831777)
  create_atoms CPU = 0.000 seconds
    variable x0 equal ${x}
    variable x0 equal 4
    variable step equal ${step} + 1
    variable step equal 15 + 1
jump SELF loop_bead
if "${step} > ${N}" then "jump SELF end_inner"
    variable x equal ${x0} + ${dbead}
    variable x equal 4 + ${dbead}
    variable x equal 4 + 0.2
    variable y equal ${y0} + 1.5*${Ny}
    variable y equal 1 + 1.5*${Ny}
    variable y equal 1 + 1.5*1
    variable z equal ${z0} + 1.5*${Nz}
    variable z equal 2 + 1.5*${Nz}
    variable z equal 2 + 1.5*1
    create_atoms 2 single ${x} ${y} ${z}
    create_atoms 2 single 4.2 ${y} ${z}
    create_atoms 2 single 4.2 2.5 ${z}
    create_atoms 2 single 4.2 2.5 3.5
Created 1 atoms
  using lattice units in orthogonal box = (0 0 0) to (92.831777 92.831777 92.831777)
  create_atoms CPU = 0.000 seconds
    variable x0 equal ${x}
    variable x0 equal 4.2
    variable step equal ${step} + 1
    variable step equal 16 + 1
jump SELF loop_bead
if "${step} > ${N}" then "jump SELF end_inner"
    variable x equal ${x0} + ${dbead}
    variable x equal 4.2 + ${dbead}
    variable x equal 4.2 + 0.2
    variable y equal ${y0} + 1.5*${Ny}
    variable y equal 1 + 1.5*${Ny}
    variable y equal 1 + 1.5*1
    variable z equal ${z0} + 1.5*${Nz}
    variable z equal 2 + 1.5*${Nz}
    variable z equal 2 + 1.5*1
    create_atoms 2 single ${x} ${y} ${z}
    create_atoms 2 single 4.4 ${y} ${z}
    create_atoms 2 single 4.4 2.5 ${z}
    create_atoms 2 single 4.4 2.5 3.5
Created 1 atoms
  using lattice units in orthogonal box = (0 0 0) to (92.831777 92.831777 92.831777)
  create_atoms CPU = 0.000 seconds
    variable x0 equal ${x}
    variable x0 equal 4.4
    variable step equal ${step} + 1
    variable step equal 17 + 1
jump SELF loop_bead
if "${step} > ${N}" then "jump SELF end_inner"
    variable x equal ${x0} + ${dbead}
    variable x equal 4.4 + ${dbead}
    variable x equal 4.4 + 0.2
    variable y equal ${y0} + 1.5*${Ny}
    variable y equal 1 + 1.5*${Ny}
    variable y equal 1 + 1.5*1
    variable z equal ${z0} + 1.5*${Nz}
    variable z equal 2 + 1.5*${Nz}
    variable z equal 2 + 1.5*1
    create_atoms 2 single ${x} ${y} ${z}
    create_atoms 2 single 4.6 ${y} ${z}
    create_atoms 2 single 4.6 2.5 ${z}
    create_atoms 2 single 4.6 2.5 3.5
Created 1 atoms
  using lattice units in orthogonal box = (0 0 0) to (92.831777 92.831777 92.831777)
  create_atoms CPU = 0.000 seconds
    variable x0 equal ${x}
    variable x0 equal 4.6
    variable step equal ${step} + 1
    variable step equal 18 + 1
jump SELF loop_bead
if "${step} > ${N}" then "jump SELF end_inner"
    variable x equal ${x0} + ${dbead}
    variable x equal 4.6 + ${dbead}
    variable x equal 4.6 + 0.2
    variable y equal ${y0} + 1.5*${Ny}
    variable y equal 1 + 1.5*${Ny}
    variable y equal 1 + 1.5*1
    variable z equal ${z0} + 1.5*${Nz}
    variable z equal 2 + 1.5*${Nz}
    variable z equal 2 + 1.5*1
    create_atoms 2 single ${x} ${y} ${z}
    create_atoms 2 single 4.8 ${y} ${z}
    create_atoms 2 single 4.8 2.5 ${z}
    create_atoms 2 single 4.8 2.5 3.5
Created 1 atoms
  using lattice units in orthogonal box = (0 0 0) to (92.831777 92.831777 92.831777)
  create_atoms CPU = 0.000 seconds
    variable x0 equal ${x}
    variable x0 equal 4.8
    variable step equal ${step} + 1
    variable step equal 19 + 1
jump SELF loop_bead
if "${step} > ${N}" then "jump SELF end_inner"
    variable x equal ${x0} + ${dbead}
    variable x equal 4.8 + ${dbead}
    variable x equal 4.8 + 0.2
    variable y equal ${y0} + 1.5*${Ny}
    variable y equal 1 + 1.5*${Ny}
    variable y equal 1 + 1.5*1
    variable z equal ${z0} + 1.5*${Nz}
    variable z equal 2 + 1.5*${Nz}
    variable z equal 2 + 1.5*1
    create_atoms 2 single ${x} ${y} ${z}
    create_atoms 2 single 5 ${y} ${z}
    create_atoms 2 single 5 2.5 ${z}
    create_atoms 2 single 5 2.5 3.5
Created 1 atoms
  using lattice units in orthogonal box = (0 0 0) to (92.831777 92.831777 92.831777)
  create_atoms CPU = 0.000 seconds
    variable x0 equal ${x}
    variable x0 equal 5
    variable step equal ${step} + 1
    variable step equal 20 + 1
jump SELF loop_bead
if "${step} > ${N}" then "jump SELF end_inner"
    variable x equal ${x0} + ${dbead}
    variable x equal 5 + ${dbead}
    variable x equal 5 + 0.2
    variable y equal ${y0} + 1.5*${Ny}
    variable y equal 1 + 1.5*${Ny}
    variable y equal 1 + 1.5*1
    variable z equal ${z0} + 1.5*${Nz}
    variable z equal 2 + 1.5*${Nz}
    variable z equal 2 + 1.5*1
    create_atoms 2 single ${x} ${y} ${z}
    create_atoms 2 single 5.2 ${y} ${z}
    create_atoms 2 single 5.2 2.5 ${z}
    create_atoms 2 single 5.2 2.5 3.5
Created 1 atoms
  using lattice units in orthogonal box = (0 0 0) to (92.831777 92.831777 92.831777)
  create_atoms CPU = 0.000 seconds
    variable x0 equal ${x}
    variable x0 equal 5.2
    variable step equal ${step} + 1
    variable step equal 21 + 1
jump SELF loop_bead
if "${step} > ${N}" then "jump SELF end_inner"
    variable x equal ${x0} + ${dbead}
    variable x equal 5.2 + ${dbead}
    variable x equal 5.2 + 0.2
    variable y equal ${y0} + 1.5*${Ny}
    variable y equal 1 + 1.5*${Ny}
    variable y equal 1 + 1.5*1
    variable z equal ${z0} + 1.5*${Nz}
    variable z equal 2 + 1.5*${Nz}
    variable z equal 2 + 1.5*1
    create_atoms 2 single ${x} ${y} ${z}
    create_atoms 2 single 5.4 ${y} ${z}
    create_atoms 2 single 5.4 2.5 ${z}
    create_atoms 2 single 5.4 2.5 3.5
Created 1 atoms
  using lattice units in orthogonal box = (0 0 0) to (92.831777 92.831777 92.831777)
  create_atoms CPU = 0.000 seconds
    variable x0 equal ${x}
    variable x0 equal 5.4
    variable step equal ${step} + 1
    variable step equal 22 + 1
jump SELF loop_bead
if "${step} > ${N}" then "jump SELF end_inner"
    variable x equal ${x0} + ${dbead}
    variable x equal 5.4 + ${dbead}
    variable x equal 5.4 + 0.2
    variable y equal ${y0} + 1.5*${Ny}
    variable y equal 1 + 1.5*${Ny}
    variable y equal 1 + 1.5*1
    variable z equal ${z0} + 1.5*${Nz}
    variable z equal 2 + 1.5*${Nz}
    variable z equal 2 + 1.5*1
    create_atoms 2 single ${x} ${y} ${z}
    create_atoms 2 single 5.6 ${y} ${z}
    create_atoms 2 single 5.6 2.5 ${z}
    create_atoms 2 single 5.6 2.5 3.5
Created 1 atoms
  using lattice units in orthogonal box = (0 0 0) to (92.831777 92.831777 92.831777)
  create_atoms CPU = 0.000 seconds
    variable x0 equal ${x}
    variable x0 equal 5.6
    variable step equal ${step} + 1
    variable step equal 23 + 1
jump SELF loop_bead
if "${step} > ${N}" then "jump SELF end_inner"
    variable x equal ${x0} + ${dbead}
    variable x equal 5.6 + ${dbead}
    variable x equal 5.6 + 0.2
    variable y equal ${y0} + 1.5*${Ny}
    variable y equal 1 + 1.5*${Ny}
    variable y equal 1 + 1.5*1
    variable z equal ${z0} + 1.5*${Nz}
    variable z equal 2 + 1.5*${Nz}
    variable z equal 2 + 1.5*1
    create_atoms 2 single ${x} ${y} ${z}
    create_atoms 2 single 5.8 ${y} ${z}
    create_atoms 2 single 5.8 2.5 ${z}
    create_atoms 2 single 5.8 2.5 3.5
Created 1 atoms
  using lattice units in orthogonal box = (0 0 0) to (92.831777 92.831777 92.831777)
  create_atoms CPU = 0.000 seconds
    variable x0 equal ${x}
    variable x0 equal 5.8
    variable step equal ${step} + 1
    variable step equal 24 + 1
jump SELF loop_bead
if "${step} > ${N}" then "jump SELF end_inner"
    variable x equal ${x0} + ${dbead}
    variable x equal 5.8 + ${dbead}
    variable x equal 5.8 + 0.2
    variable y equal ${y0} + 1.5*${Ny}
    variable y equal 1 + 1.5*${Ny}
    variable y equal 1 + 1.5*1
    variable z equal ${z0} + 1.5*${Nz}
    variable z equal 2 + 1.5*${Nz}
    variable z equal 2 + 1.5*1
    create_atoms 2 single ${x} ${y} ${z}
    create_atoms 2 single 6 ${y} ${z}
    create_atoms 2 single 6 2.5 ${z}
    create_atoms 2 single 6 2.5 3.5
Created 1 atoms
  using lattice units in orthogonal box = (0 0 0) to (92.831777 92.831777 92.831777)
  create_atoms CPU = 0.000 seconds
    variable x0 equal ${x}
    variable x0 equal 6
    variable step equal ${step} + 1
    variable step equal 25 + 1
jump SELF loop_bead
if "${step} > ${N}" then "jump SELF end_inner"
    variable x equal ${x0} + ${dbead}
    variable x equal 6 + ${dbead}
    variable x equal 6 + 0.2
    variable y equal ${y0} + 1.5*${Ny}
    variable y equal 1 + 1.5*${Ny}
    variable y equal 1 + 1.5*1
    variable z equal ${z0} + 1.5*${Nz}
    variable z equal 2 + 1.5*${Nz}
    variable z equal 2 + 1.5*1
    create_atoms 2 single ${x} ${y} ${z}
    create_atoms 2 single 6.2 ${y} ${z}
    create_atoms 2 single 6.2 2.5 ${z}
    create_atoms 2 single 6.2 2.5 3.5
Created 1 atoms
  using lattice units in orthogonal box = (0 0 0) to (92.831777 92.831777 92.831777)
  create_atoms CPU = 0.000 seconds
    variable x0 equal ${x}
    variable x0 equal 6.2
    variable step equal ${step} + 1
    variable step equal 26 + 1
jump SELF loop_bead
if "${step} > ${N}" then "jump SELF end_inner"
    variable x equal ${x0} + ${dbead}
    variable x equal 6.2 + ${dbead}
    variable x equal 6.2 + 0.2
    variable y equal ${y0} + 1.5*${Ny}
    variable y equal 1 + 1.5*${Ny}
    variable y equal 1 + 1.5*1
    variable z equal ${z0} + 1.5*${Nz}
    variable z equal 2 + 1.5*${Nz}
    variable z equal 2 + 1.5*1
    create_atoms 2 single ${x} ${y} ${z}
    create_atoms 2 single 6.4 ${y} ${z}
    create_atoms 2 single 6.4 2.5 ${z}
    create_atoms 2 single 6.4 2.5 3.5
Created 1 atoms
  using lattice units in orthogonal box = (0 0 0) to (92.831777 92.831777 92.831777)
  create_atoms CPU = 0.000 seconds
    variable x0 equal ${x}
    variable x0 equal 6.4
    variable step equal ${step} + 1
    variable step equal 27 + 1
jump SELF loop_bead
if "${step} > ${N}" then "jump SELF end_inner"
    variable x equal ${x0} + ${dbead}
    variable x equal 6.4 + ${dbead}
    variable x equal 6.4 + 0.2
    variable y equal ${y0} + 1.5*${Ny}
    variable y equal 1 + 1.5*${Ny}
    variable y equal 1 + 1.5*1
    variable z equal ${z0} + 1.5*${Nz}
    variable z equal 2 + 1.5*${Nz}
    variable z equal 2 + 1.5*1
    create_atoms 2 single ${x} ${y} ${z}
    create_atoms 2 single 6.6 ${y} ${z}
    create_atoms 2 single 6.6 2.5 ${z}
    create_atoms 2 single 6.6 2.5 3.5
Created 1 atoms
  using lattice units in orthogonal box = (0 0 0) to (92.831777 92.831777 92.831777)
  create_atoms CPU = 0.000 seconds
    variable x0 equal ${x}
    variable x0 equal 6.6
    variable step equal ${step} + 1
    variable step equal 28 + 1
jump SELF loop_bead
if "${step} > ${N}" then "jump SELF end_inner"
    variable x equal ${x0} + ${dbead}
    variable x equal 6.6 + ${dbead}
    variable x equal 6.6 + 0.2
    variable y equal ${y0} + 1.5*${Ny}
    variable y equal 1 + 1.5*${Ny}
    variable y equal 1 + 1.5*1
    variable z equal ${z0} + 1.5*${Nz}
    variable z equal 2 + 1.5*${Nz}
    variable z equal 2 + 1.5*1
    create_atoms 2 single ${x} ${y} ${z}
    create_atoms 2 single 6.8 ${y} ${z}
    create_atoms 2 single 6.8 2.5 ${z}
    create_atoms 2 single 6.8 2.5 3.5
Created 1 atoms
  using lattice units in orthogonal box = (0 0 0) to (92.831777 92.831777 92.831777)
  create_atoms CPU = 0.000 seconds
    variable x0 equal ${x}
    variable x0 equal 6.8
    variable step equal ${step} + 1
    variable step equal 29 + 1
jump SELF loop_bead
if "${step} > ${N}" then "jump SELF end_inner"
    variable x equal ${x0} + ${dbead}
    variable x equal 6.8 + ${dbead}
    variable x equal 6.8 + 0.2
    variable y equal ${y0} + 1.5*${Ny}
    variable y equal 1 + 1.5*${Ny}
    variable y equal 1 + 1.5*1
    variable z equal ${z0} + 1.5*${Nz}
    variable z equal 2 + 1.5*${Nz}
    variable z equal 2 + 1.5*1
    create_atoms 2 single ${x} ${y} ${z}
    create_atoms 2 single 7 ${y} ${z}
    create_atoms 2 single 7 2.5 ${z}
    create_atoms 2 single 7 2.5 3.5
Created 1 atoms
  using lattice units in orthogonal box = (0 0 0) to (92.831777 92.831777 92.831777)
  create_atoms CPU = 0.000 seconds
    variable x0 equal ${x}
    variable x0 equal 7
    variable step equal ${step} + 1
    variable step equal 30 + 1
jump SELF loop_bead
if "${step} > ${N}" then "jump SELF end_inner"
jump SELF end_inner
variable x0 equal 1.0
variable y0 equal 1.0
variable step equal 1
next Ny
jump SELF loop_y
label loop_bead
if "${step} > ${N}" then "jump SELF end_inner"
    variable x equal ${x0} + ${dbead}
    variable x equal 1 + ${dbead}
    variable x equal 1 + 0.2
    variable y equal ${y0} + 1.5*${Ny}
    variable y equal 1 + 1.5*${Ny}
    variable y equal 1 + 1.5*2
    variable z equal ${z0} + 1.5*${Nz}
    variable z equal 2 + 1.5*${Nz}
    variable z equal 2 + 1.5*1
    create_atoms 2 single ${x} ${y} ${z}
    create_atoms 2 single 1.2 ${y} ${z}
    create_atoms 2 single 1.2 4 ${z}
    create_atoms 2 single 1.2 4 3.5
Created 1 atoms
  using lattice units in orthogonal box = (0 0 0) to (92.831777 92.831777 92.831777)
  create_atoms CPU = 0.000 seconds
    variable x0 equal ${x}
    variable x0 equal 1.2
    variable step equal ${step} + 1
    variable step equal 1 + 1
jump SELF loop_bead
if "${step} > ${N}" then "jump SELF end_inner"
    variable x equal ${x0} + ${dbead}
    variable x equal 1.2 + ${dbead}
    variable x equal 1.2 + 0.2
    variable y equal ${y0} + 1.5*${Ny}
    variable y equal 1 + 1.5*${Ny}
    variable y equal 1 + 1.5*2
    variable z equal ${z0} + 1.5*${Nz}
    variable z equal 2 + 1.5*${Nz}
    variable z equal 2 + 1.5*1
    create_atoms 2 single ${x} ${y} ${z}
    create_atoms 2 single 1.4 ${y} ${z}
    create_atoms 2 single 1.4 4 ${z}
    create_atoms 2 single 1.4 4 3.5
Created 1 atoms
  using lattice units in orthogonal box = (0 0 0) to (92.831777 92.831777 92.831777)
  create_atoms CPU = 0.000 seconds
    variable x0 equal ${x}
    variable x0 equal 1.4
    variable step equal ${step} + 1
    variable step equal 2 + 1
jump SELF loop_bead
if "${step} > ${N}" then "jump SELF end_inner"
    variable x equal ${x0} + ${dbead}
    variable x equal 1.4 + ${dbead}
    variable x equal 1.4 + 0.2
    variable y equal ${y0} + 1.5*${Ny}
    variable y equal 1 + 1.5*${Ny}
    variable y equal 1 + 1.5*2
    variable z equal ${z0} + 1.5*${Nz}
    variable z equal 2 + 1.5*${Nz}
    variable z equal 2 + 1.5*1
    create_atoms 2 single ${x} ${y} ${z}
    create_atoms 2 single 1.6 ${y} ${z}
    create_atoms 2 single 1.6 4 ${z}
    create_atoms 2 single 1.6 4 3.5
Created 1 atoms
  using lattice units in orthogonal box = (0 0 0) to (92.831777 92.831777 92.831777)
  create_atoms CPU = 0.000 seconds
    variable x0 equal ${x}
    variable x0 equal 1.6
    variable step equal ${step} + 1
    variable step equal 3 + 1
jump SELF loop_bead
if "${step} > ${N}" then "jump SELF end_inner"
    variable x equal ${x0} + ${dbead}
    variable x equal 1.6 + ${dbead}
    variable x equal 1.6 + 0.2
    variable y equal ${y0} + 1.5*${Ny}
    variable y equal 1 + 1.5*${Ny}
    variable y equal 1 + 1.5*2
    variable z equal ${z0} + 1.5*${Nz}
    variable z equal 2 + 1.5*${Nz}
    variable z equal 2 + 1.5*1
    create_atoms 2 single ${x} ${y} ${z}
    create_atoms 2 single 1.8 ${y} ${z}
    create_atoms 2 single 1.8 4 ${z}
    create_atoms 2 single 1.8 4 3.5
Created 1 atoms
  using lattice units in orthogonal box = (0 0 0) to (92.831777 92.831777 92.831777)
  create_atoms CPU = 0.000 seconds
    variable x0 equal ${x}
    variable x0 equal 1.8
    variable step equal ${step} + 1
    variable step equal 4 + 1
jump SELF loop_bead
if "${step} > ${N}" then "jump SELF end_inner"
    variable x equal ${x0} + ${dbead}
    variable x equal 1.8 + ${dbead}
    variable x equal 1.8 + 0.2
    variable y equal ${y0} + 1.5*${Ny}
    variable y equal 1 + 1.5*${Ny}
    variable y equal 1 + 1.5*2
    variable z equal ${z0} + 1.5*${Nz}
    variable z equal 2 + 1.5*${Nz}
    variable z equal 2 + 1.5*1
    create_atoms 2 single ${x} ${y} ${z}
    create_atoms 2 single 2 ${y} ${z}
    create_atoms 2 single 2 4 ${z}
    create_atoms 2 single 2 4 3.5
Created 1 atoms
  using lattice units in orthogonal box = (0 0 0) to (92.831777 92.831777 92.831777)
  create_atoms CPU = 0.000 seconds
    variable x0 equal ${x}
    variable x0 equal 2
    variable step equal ${step} + 1
    variable step equal 5 + 1
jump SELF loop_bead
if "${step} > ${N}" then "jump SELF end_inner"
    variable x equal ${x0} + ${dbead}
    variable x equal 2 + ${dbead}
    variable x equal 2 + 0.2
    variable y equal ${y0} + 1.5*${Ny}
    variable y equal 1 + 1.5*${Ny}
    variable y equal 1 + 1.5*2
    variable z equal ${z0} + 1.5*${Nz}
    variable z equal 2 + 1.5*${Nz}
    variable z equal 2 + 1.5*1
    create_atoms 2 single ${x} ${y} ${z}
    create_atoms 2 single 2.2 ${y} ${z}
    create_atoms 2 single 2.2 4 ${z}
    create_atoms 2 single 2.2 4 3.5
Created 1 atoms
  using lattice units in orthogonal box = (0 0 0) to (92.831777 92.831777 92.831777)
  create_atoms CPU = 0.000 seconds
    variable x0 equal ${x}
    variable x0 equal 2.2
    variable step equal ${step} + 1
    variable step equal 6 + 1
jump SELF loop_bead
if "${step} > ${N}" then "jump SELF end_inner"
    variable x equal ${x0} + ${dbead}
    variable x equal 2.2 + ${dbead}
    variable x equal 2.2 + 0.2
    variable y equal ${y0} + 1.5*${Ny}
    variable y equal 1 + 1.5*${Ny}
    variable y equal 1 + 1.5*2
    variable z equal ${z0} + 1.5*${Nz}
    variable z equal 2 + 1.5*${Nz}
    variable z equal 2 + 1.5*1
    create_atoms 2 single ${x} ${y} ${z}
    create_atoms 2 single 2.4 ${y} ${z}
    create_atoms 2 single 2.4 4 ${z}
    create_atoms 2 single 2.4 4 3.5
Created 1 atoms
  using lattice units in orthogonal box = (0 0 0) to (92.831777 92.831777 92.831777)
  create_atoms CPU = 0.000 seconds
    variable x0 equal ${x}
    variable x0 equal 2.4
    variable step equal ${step} + 1
    variable step equal 7 + 1
jump SELF loop_bead
if "${step} > ${N}" then "jump SELF end_inner"
    variable x equal ${x0} + ${dbead}
    variable x equal 2.4 + ${dbead}
    variable x equal 2.4 + 0.2
    variable y equal ${y0} + 1.5*${Ny}
    variable y equal 1 + 1.5*${Ny}
    variable y equal 1 + 1.5*2
    variable z equal ${z0} + 1.5*${Nz}
    variable z equal 2 + 1.5*${Nz}
    variable z equal 2 + 1.5*1
    create_atoms 2 single ${x} ${y} ${z}
    create_atoms 2 single 2.6 ${y} ${z}
    create_atoms 2 single 2.6 4 ${z}
    create_atoms 2 single 2.6 4 3.5
Created 1 atoms
  using lattice units in orthogonal box = (0 0 0) to (92.831777 92.831777 92.831777)
  create_atoms CPU = 0.000 seconds
    variable x0 equal ${x}
    variable x0 equal 2.6
    variable step equal ${step} + 1
    variable step equal 8 + 1
jump SELF loop_bead
if "${step} > ${N}" then "jump SELF end_inner"
    variable x equal ${x0} + ${dbead}
    variable x equal 2.6 + ${dbead}
    variable x equal 2.6 + 0.2
    variable y equal ${y0} + 1.5*${Ny}
    variable y equal 1 + 1.5*${Ny}
    variable y equal 1 + 1.5*2
    variable z equal ${z0} + 1.5*${Nz}
    variable z equal 2 + 1.5*${Nz}
    variable z equal 2 + 1.5*1
    create_atoms 2 single ${x} ${y} ${z}
    create_atoms 2 single 2.8 ${y} ${z}
    create_atoms 2 single 2.8 4 ${z}
    create_atoms 2 single 2.8 4 3.5
Created 1 atoms
  using lattice units in orthogonal box = (0 0 0) to (92.831777 92.831777 92.831777)
  create_atoms CPU = 0.000 seconds
    variable x0 equal ${x}
    variable x0 equal 2.8
    variable step equal ${step} + 1
    variable step equal 9 + 1
jump SELF loop_bead
if "${step} > ${N}" then "jump SELF end_inner"
    variable x equal ${x0} + ${dbead}
    variable x equal 2.8 + ${dbead}
    variable x equal 2.8 + 0.2
    variable y equal ${y0} + 1.5*${Ny}
    variable y equal 1 + 1.5*${Ny}
    variable y equal 1 + 1.5*2
    variable z equal ${z0} + 1.5*${Nz}
    variable z equal 2 + 1.5*${Nz}
    variable z equal 2 + 1.5*1
    create_atoms 2 single ${x} ${y} ${z}
    create_atoms 2 single 3 ${y} ${z}
    create_atoms 2 single 3 4 ${z}
    create_atoms 2 single 3 4 3.5
Created 1 atoms
  using lattice units in orthogonal box = (0 0 0) to (92.831777 92.831777 92.831777)
  create_atoms CPU = 0.000 seconds
    variable x0 equal ${x}
    variable x0 equal 3
    variable step equal ${step} + 1
    variable step equal 10 + 1
jump SELF loop_bead
if "${step} > ${N}" then "jump SELF end_inner"
    variable x equal ${x0} + ${dbead}
    variable x equal 3 + ${dbead}
    variable x equal 3 + 0.2
    variable y equal ${y0} + 1.5*${Ny}
    variable y equal 1 + 1.5*${Ny}
    variable y equal 1 + 1.5*2
    variable z equal ${z0} + 1.5*${Nz}
    variable z equal 2 + 1.5*${Nz}
    variable z equal 2 + 1.5*1
    create_atoms 2 single ${x} ${y} ${z}
    create_atoms 2 single 3.2 ${y} ${z}
    create_atoms 2 single 3.2 4 ${z}
    create_atoms 2 single 3.2 4 3.5
Created 1 atoms
  using lattice units in orthogonal box = (0 0 0) to (92.831777 92.831777 92.831777)
  create_atoms CPU = 0.000 seconds
    variable x0 equal ${x}
    variable x0 equal 3.2
    variable step equal ${step} + 1
    variable step equal 11 + 1
jump SELF loop_bead
if "${step} > ${N}" then "jump SELF end_inner"
    variable x equal ${x0} + ${dbead}
    variable x equal 3.2 + ${dbead}
    variable x equal 3.2 + 0.2
    variable y equal ${y0} + 1.5*${Ny}
    variable y equal 1 + 1.5*${Ny}
    variable y equal 1 + 1.5*2
    variable z equal ${z0} + 1.5*${Nz}
    variable z equal 2 + 1.5*${Nz}
    variable z equal 2 + 1.5*1
    create_atoms 2 single ${x} ${y} ${z}
    create_atoms 2 single 3.4 ${y} ${z}
    create_atoms 2 single 3.4 4 ${z}
    create_atoms 2 single 3.4 4 3.5
Created 1 atoms
  using lattice units in orthogonal box = (0 0 0) to (92.831777 92.831777 92.831777)
  create_atoms CPU = 0.000 seconds
    variable x0 equal ${x}
    variable x0 equal 3.4
    variable step equal ${step} + 1
    variable step equal 12 + 1
jump SELF loop_bead
if "${step} > ${N}" then "jump SELF end_inner"
    variable x equal ${x0} + ${dbead}
    variable x equal 3.4 + ${dbead}
    variable x equal 3.4 + 0.2
    variable y equal ${y0} + 1.5*${Ny}
    variable y equal 1 + 1.5*${Ny}
    variable y equal 1 + 1.5*2
    variable z equal ${z0} + 1.5*${Nz}
    variable z equal 2 + 1.5*${Nz}
    variable z equal 2 + 1.5*1
    create_atoms 2 single ${x} ${y} ${z}
    create_atoms 2 single 3.6 ${y} ${z}
    create_atoms 2 single 3.6 4 ${z}
    create_atoms 2 single 3.6 4 3.5
Created 1 atoms
  using lattice units in orthogonal box = (0 0 0) to (92.831777 92.831777 92.831777)
  create_atoms CPU = 0.000 seconds
    variable x0 equal ${x}
    variable x0 equal 3.6
    variable step equal ${step} + 1
    variable step equal 13 + 1
jump SELF loop_bead
if "${step} > ${N}" then "jump SELF end_inner"
    variable x equal ${x0} + ${dbead}
    variable x equal 3.6 + ${dbead}
    variable x equal 3.6 + 0.2
    variable y equal ${y0} + 1.5*${Ny}
    variable y equal 1 + 1.5*${Ny}
    variable y equal 1 + 1.5*2
    variable z equal ${z0} + 1.5*${Nz}
    variable z equal 2 + 1.5*${Nz}
    variable z equal 2 + 1.5*1
    create_atoms 2 single ${x} ${y} ${z}
    create_atoms 2 single 3.8 ${y} ${z}
    create_atoms 2 single 3.8 4 ${z}
    create_atoms 2 single 3.8 4 3.5
Created 1 atoms
  using lattice units in orthogonal box = (0 0 0) to (92.831777 92.831777 92.831777)
  create_atoms CPU = 0.000 seconds
    variable x0 equal ${x}
    variable x0 equal 3.8
    variable step equal ${step} + 1
    variable step equal 14 + 1
jump SELF loop_bead
if "${step} > ${N}" then "jump SELF end_inner"
    variable x equal ${x0} + ${dbead}
    variable x equal 3.8 + ${dbead}
    variable x equal 3.8 + 0.2
    variable y equal ${y0} + 1.5*${Ny}
    variable y equal 1 + 1.5*${Ny}
    variable y equal 1 + 1.5*2
    variable z equal ${z0} + 1.5*${Nz}
    variable z equal 2 + 1.5*${Nz}
    variable z equal 2 + 1.5*1
    create_atoms 2 single ${x} ${y} ${z}
    create_atoms 2 single 4 ${y} ${z}
    create_atoms 2 single 4 4 ${z}
    create_atoms 2 single 4 4 3.5
Created 1 atoms
  using lattice units in orthogonal box = (0 0 0) to (92.831777 92.831777 92.831777)
  create_atoms CPU = 0.000 seconds
    variable x0 equal ${x}
    variable x0 equal 4
    variable step equal ${step} + 1
    variable step equal 15 + 1
jump SELF loop_bead
if "${step} > ${N}" then "jump SELF end_inner"
    variable x equal ${x0} + ${dbead}
    variable x equal 4 + ${dbead}
    variable x equal 4 + 0.2
    variable y equal ${y0} + 1.5*${Ny}
    variable y equal 1 + 1.5*${Ny}
    variable y equal 1 + 1.5*2
    variable z equal ${z0} + 1.5*${Nz}
    variable z equal 2 + 1.5*${Nz}
    variable z equal 2 + 1.5*1
    create_atoms 2 single ${x} ${y} ${z}
    create_atoms 2 single 4.2 ${y} ${z}
    create_atoms 2 single 4.2 4 ${z}
    create_atoms 2 single 4.2 4 3.5
Created 1 atoms
  using lattice units in orthogonal box = (0 0 0) to (92.831777 92.831777 92.831777)
  create_atoms CPU = 0.000 seconds
    variable x0 equal ${x}
    variable x0 equal 4.2
    variable step equal ${step} + 1
    variable step equal 16 + 1
jump SELF loop_bead
if "${step} > ${N}" then "jump SELF end_inner"
    variable x equal ${x0} + ${dbead}
    variable x equal 4.2 + ${dbead}
    variable x equal 4.2 + 0.2
    variable y equal ${y0} + 1.5*${Ny}
    variable y equal 1 + 1.5*${Ny}
    variable y equal 1 + 1.5*2
    variable z equal ${z0} + 1.5*${Nz}
    variable z equal 2 + 1.5*${Nz}
    variable z equal 2 + 1.5*1
    create_atoms 2 single ${x} ${y} ${z}
    create_atoms 2 single 4.4 ${y} ${z}
    create_atoms 2 single 4.4 4 ${z}
    create_atoms 2 single 4.4 4 3.5
Created 1 atoms
  using lattice units in orthogonal box = (0 0 0) to (92.831777 92.831777 92.831777)
  create_atoms CPU = 0.000 seconds
    variable x0 equal ${x}
    variable x0 equal 4.4
    variable step equal ${step} + 1
    variable step equal 17 + 1
jump SELF loop_bead
if "${step} > ${N}" then "jump SELF end_inner"
    variable x equal ${x0} + ${dbead}
    variable x equal 4.4 + ${dbead}
    variable x equal 4.4 + 0.2
    variable y equal ${y0} + 1.5*${Ny}
    variable y equal 1 + 1.5*${Ny}
    variable y equal 1 + 1.5*2
    variable z equal ${z0} + 1.5*${Nz}
    variable z equal 2 + 1.5*${Nz}
    variable z equal 2 + 1.5*1
    create_atoms 2 single ${x} ${y} ${z}
    create_atoms 2 single 4.6 ${y} ${z}
    create_atoms 2 single 4.6 4 ${z}
    create_atoms 2 single 4.6 4 3.5
Created 1 atoms
  using lattice units in orthogonal box = (0 0 0) to (92.831777 92.831777 92.831777)
  create_atoms CPU = 0.000 seconds
    variable x0 equal ${x}
    variable x0 equal 4.6
    variable step equal ${step} + 1
    variable step equal 18 + 1
jump SELF loop_bead
if "${step} > ${N}" then "jump SELF end_inner"
    variable x equal ${x0} + ${dbead}
    variable x equal 4.6 + ${dbead}
    variable x equal 4.6 + 0.2
    variable y equal ${y0} + 1.5*${Ny}
    variable y equal 1 + 1.5*${Ny}
    variable y equal 1 + 1.5*2
    variable z equal ${z0} + 1.5*${Nz}
    variable z equal 2 + 1.5*${Nz}
    variable z equal 2 + 1.5*1
    create_atoms 2 single ${x} ${y} ${z}
    create_atoms 2 single 4.8 ${y} ${z}
    create_atoms 2 single 4.8 4 ${z}
    create_atoms 2 single 4.8 4 3.5
Created 1 atoms
  using lattice units in orthogonal box = (0 0 0) to (92.831777 92.831777 92.831777)
  create_atoms CPU = 0.000 seconds
    variable x0 equal ${x}
    variable x0 equal 4.8
    variable step equal ${step} + 1
    variable step equal 19 + 1
jump SELF loop_bead
if "${step} > ${N}" then "jump SELF end_inner"
    variable x equal ${x0} + ${dbead}
    variable x equal 4.8 + ${dbead}
    variable x equal 4.8 + 0.2
    variable y equal ${y0} + 1.5*${Ny}
    variable y equal 1 + 1.5*${Ny}
    variable y equal 1 + 1.5*2
    variable z equal ${z0} + 1.5*${Nz}
    variable z equal 2 + 1.5*${Nz}
    variable z equal 2 + 1.5*1
    create_atoms 2 single ${x} ${y} ${z}
    create_atoms 2 single 5 ${y} ${z}
    create_atoms 2 single 5 4 ${z}
    create_atoms 2 single 5 4 3.5
Created 1 atoms
  using lattice units in orthogonal box = (0 0 0) to (92.831777 92.831777 92.831777)
  create_atoms CPU = 0.000 seconds
    variable x0 equal ${x}
    variable x0 equal 5
    variable step equal ${step} + 1
    variable step equal 20 + 1
jump SELF loop_bead
if "${step} > ${N}" then "jump SELF end_inner"
    variable x equal ${x0} + ${dbead}
    variable x equal 5 + ${dbead}
    variable x equal 5 + 0.2
    variable y equal ${y0} + 1.5*${Ny}
    variable y equal 1 + 1.5*${Ny}
    variable y equal 1 + 1.5*2
    variable z equal ${z0} + 1.5*${Nz}
    variable z equal 2 + 1.5*${Nz}
    variable z equal 2 + 1.5*1
    create_atoms 2 single ${x} ${y} ${z}
    create_atoms 2 single 5.2 ${y} ${z}
    create_atoms 2 single 5.2 4 ${z}
    create_atoms 2 single 5.2 4 3.5
Created 1 atoms
  using lattice units in orthogonal box = (0 0 0) to (92.831777 92.831777 92.831777)
  create_atoms CPU = 0.000 seconds
    variable x0 equal ${x}
    variable x0 equal 5.2
    variable step equal ${step} + 1
    variable step equal 21 + 1
jump SELF loop_bead
if "${step} > ${N}" then "jump SELF end_inner"
    variable x equal ${x0} + ${dbead}
    variable x equal 5.2 + ${dbead}
    variable x equal 5.2 + 0.2
    variable y equal ${y0} + 1.5*${Ny}
    variable y equal 1 + 1.5*${Ny}
    variable y equal 1 + 1.5*2
    variable z equal ${z0} + 1.5*${Nz}
    variable z equal 2 + 1.5*${Nz}
    variable z equal 2 + 1.5*1
    create_atoms 2 single ${x} ${y} ${z}
    create_atoms 2 single 5.4 ${y} ${z}
    create_atoms 2 single 5.4 4 ${z}
    create_atoms 2 single 5.4 4 3.5
Created 1 atoms
  using lattice units in orthogonal box = (0 0 0) to (92.831777 92.831777 92.831777)
  create_atoms CPU = 0.000 seconds
    variable x0 equal ${x}
    variable x0 equal 5.4
    variable step equal ${step} + 1
    variable step equal 22 + 1
jump SELF loop_bead
if "${step} > ${N}" then "jump SELF end_inner"
    variable x equal ${x0} + ${dbead}
    variable x equal 5.4 + ${dbead}
    variable x equal 5.4 + 0.2
    variable y equal ${y0} + 1.5*${Ny}
    variable y equal 1 + 1.5*${Ny}
    variable y equal 1 + 1.5*2
    variable z equal ${z0} + 1.5*${Nz}
    variable z equal 2 + 1.5*${Nz}
    variable z equal 2 + 1.5*1
    create_atoms 2 single ${x} ${y} ${z}
    create_atoms 2 single 5.6 ${y} ${z}
    create_atoms 2 single 5.6 4 ${z}
    create_atoms 2 single 5.6 4 3.5
Created 1 atoms
  using lattice units in orthogonal box = (0 0 0) to (92.831777 92.831777 92.831777)
  create_atoms CPU = 0.000 seconds
    variable x0 equal ${x}
    variable x0 equal 5.6
    variable step equal ${step} + 1
    variable step equal 23 + 1
jump SELF loop_bead
if "${step} > ${N}" then "jump SELF end_inner"
    variable x equal ${x0} + ${dbead}
    variable x equal 5.6 + ${dbead}
    variable x equal 5.6 + 0.2
    variable y equal ${y0} + 1.5*${Ny}
    variable y equal 1 + 1.5*${Ny}
    variable y equal 1 + 1.5*2
    variable z equal ${z0} + 1.5*${Nz}
    variable z equal 2 + 1.5*${Nz}
    variable z equal 2 + 1.5*1
    create_atoms 2 single ${x} ${y} ${z}
    create_atoms 2 single 5.8 ${y} ${z}
    create_atoms 2 single 5.8 4 ${z}
    create_atoms 2 single 5.8 4 3.5
Created 1 atoms
  using lattice units in orthogonal box = (0 0 0) to (92.831777 92.831777 92.831777)
  create_atoms CPU = 0.000 seconds
    variable x0 equal ${x}
    variable x0 equal 5.8
    variable step equal ${step} + 1
    variable step equal 24 + 1
jump SELF loop_bead
if "${step} > ${N}" then "jump SELF end_inner"
    variable x equal ${x0} + ${dbead}
    variable x equal 5.8 + ${dbead}
    variable x equal 5.8 + 0.2
    variable y equal ${y0} + 1.5*${Ny}
    variable y equal 1 + 1.5*${Ny}
    variable y equal 1 + 1.5*2
    variable z equal ${z0} + 1.5*${Nz}
    variable z equal 2 + 1.5*${Nz}
    variable z equal 2 + 1.5*1
    create_atoms 2 single ${x} ${y} ${z}
    create_atoms 2 single 6 ${y} ${z}
    create_atoms 2 single 6 4 ${z}
    create_atoms 2 single 6 4 3.5
Created 1 atoms
  using lattice units in orthogonal box = (0 0 0) to (92.831777 92.831777 92.831777)
  create_atoms CPU = 0.000 seconds
    variable x0 equal ${x}
    variable x0 equal 6
    variable step equal ${step} + 1
    variable step equal 25 + 1
jump SELF loop_bead
if "${step} > ${N}" then "jump SELF end_inner"
    variable x equal ${x0} + ${dbead}
    variable x equal 6 + ${dbead}
    variable x equal 6 + 0.2
    variable y equal ${y0} + 1.5*${Ny}
    variable y equal 1 + 1.5*${Ny}
    variable y equal 1 + 1.5*2
    variable z equal ${z0} + 1.5*${Nz}
    variable z equal 2 + 1.5*${Nz}
    variable z equal 2 + 1.5*1
    create_atoms 2 single ${x} ${y} ${z}
    create_atoms 2 single 6.2 ${y} ${z}
    create_atoms 2 single 6.2 4 ${z}
    create_atoms 2 single 6.2 4 3.5
Created 1 atoms
  using lattice units in orthogonal box = (0 0 0) to (92.831777 92.831777 92.831777)
  create_atoms CPU = 0.000 seconds
    variable x0 equal ${x}
    variable x0 equal 6.2
    variable step equal ${step} + 1
    variable step equal 26 + 1
jump SELF loop_bead
if "${step} > ${N}" then "jump SELF end_inner"
    variable x equal ${x0} + ${dbead}
    variable x equal 6.2 + ${dbead}
    variable x equal 6.2 + 0.2
    variable y equal ${y0} + 1.5*${Ny}
    variable y equal 1 + 1.5*${Ny}
    variable y equal 1 + 1.5*2
    variable z equal ${z0} + 1.5*${Nz}
    variable z equal 2 + 1.5*${Nz}
    variable z equal 2 + 1.5*1
    create_atoms 2 single ${x} ${y} ${z}
    create_atoms 2 single 6.4 ${y} ${z}
    create_atoms 2 single 6.4 4 ${z}
    create_atoms 2 single 6.4 4 3.5
Created 1 atoms
  using lattice units in orthogonal box = (0 0 0) to (92.831777 92.831777 92.831777)
  create_atoms CPU = 0.000 seconds
    variable x0 equal ${x}
    variable x0 equal 6.4
    variable step equal ${step} + 1
    variable step equal 27 + 1
jump SELF loop_bead
if "${step} > ${N}" then "jump SELF end_inner"
    variable x equal ${x0} + ${dbead}
    variable x equal 6.4 + ${dbead}
    variable x equal 6.4 + 0.2
    variable y equal ${y0} + 1.5*${Ny}
    variable y equal 1 + 1.5*${Ny}
    variable y equal 1 + 1.5*2
    variable z equal ${z0} + 1.5*${Nz}
    variable z equal 2 + 1.5*${Nz}
    variable z equal 2 + 1.5*1
    create_atoms 2 single ${x} ${y} ${z}
    create_atoms 2 single 6.6 ${y} ${z}
    create_atoms 2 single 6.6 4 ${z}
    create_atoms 2 single 6.6 4 3.5
Created 1 atoms
  using lattice units in orthogonal box = (0 0 0) to (92.831777 92.831777 92.831777)
  create_atoms CPU = 0.000 seconds
    variable x0 equal ${x}
    variable x0 equal 6.6
    variable step equal ${step} + 1
    variable step equal 28 + 1
jump SELF loop_bead
if "${step} > ${N}" then "jump SELF end_inner"
    variable x equal ${x0} + ${dbead}
    variable x equal 6.6 + ${dbead}
    variable x equal 6.6 + 0.2
    variable y equal ${y0} + 1.5*${Ny}
    variable y equal 1 + 1.5*${Ny}
    variable y equal 1 + 1.5*2
    variable z equal ${z0} + 1.5*${Nz}
    variable z equal 2 + 1.5*${Nz}
    variable z equal 2 + 1.5*1
    create_atoms 2 single ${x} ${y} ${z}
    create_atoms 2 single 6.8 ${y} ${z}
    create_atoms 2 single 6.8 4 ${z}
    create_atoms 2 single 6.8 4 3.5
Created 1 atoms
  using lattice units in orthogonal box = (0 0 0) to (92.831777 92.831777 92.831777)
  create_atoms CPU = 0.000 seconds
    variable x0 equal ${x}
    variable x0 equal 6.8
    variable step equal ${step} + 1
    variable step equal 29 + 1
jump SELF loop_bead
if "${step} > ${N}" then "jump SELF end_inner"
    variable x equal ${x0} + ${dbead}
    variable x equal 6.8 + ${dbead}
    variable x equal 6.8 + 0.2
    variable y equal ${y0} + 1.5*${Ny}
    variable y equal 1 + 1.5*${Ny}
    variable y equal 1 + 1.5*2
    variable z equal ${z0} + 1.5*${Nz}
    variable z equal 2 + 1.5*${Nz}
    variable z equal 2 + 1.5*1
    create_atoms 2 single ${x} ${y} ${z}
    create_atoms 2 single 7 ${y} ${z}
    create_atoms 2 single 7 4 ${z}
    create_atoms 2 single 7 4 3.5
Created 1 atoms
  using lattice units in orthogonal box = (0 0 0) to (92.831777 92.831777 92.831777)
  create_atoms CPU = 0.000 seconds
    variable x0 equal ${x}
    variable x0 equal 7
    variable step equal ${step} + 1
    variable step equal 30 + 1
jump SELF loop_bead
if "${step} > ${N}" then "jump SELF end_inner"
jump SELF end_inner
variable x0 equal 1.0
variable y0 equal 1.0
variable step equal 1
next Ny
jump SELF loop_y
label loop_bead
if "${step} > ${N}" then "jump SELF end_inner"
    variable x equal ${x0} + ${dbead}
    variable x equal 1 + ${dbead}
    variable x equal 1 + 0.2
    variable y equal ${y0} + 1.5*${Ny}
    variable y equal 1 + 1.5*${Ny}
    variable y equal 1 + 1.5*3
    variable z equal ${z0} + 1.5*${Nz}
    variable z equal 2 + 1.5*${Nz}
    variable z equal 2 + 1.5*1
    create_atoms 2 single ${x} ${y} ${z}
    create_atoms 2 single 1.2 ${y} ${z}
    create_atoms 2 single 1.2 5.5 ${z}
    create_atoms 2 single 1.2 5.5 3.5
Created 1 atoms
  using lattice units in orthogonal box = (0 0 0) to (92.831777 92.831777 92.831777)
  create_atoms CPU = 0.000 seconds
    variable x0 equal ${x}
    variable x0 equal 1.2
    variable step equal ${step} + 1
    variable step equal 1 + 1
jump SELF loop_bead
if "${step} > ${N}" then "jump SELF end_inner"
    variable x equal ${x0} + ${dbead}
    variable x equal 1.2 + ${dbead}
    variable x equal 1.2 + 0.2
    variable y equal ${y0} + 1.5*${Ny}
    variable y equal 1 + 1.5*${Ny}
    variable y equal 1 + 1.5*3
    variable z equal ${z0} + 1.5*${Nz}
    variable z equal 2 + 1.5*${Nz}
    variable z equal 2 + 1.5*1
    create_atoms 2 single ${x} ${y} ${z}
    create_atoms 2 single 1.4 ${y} ${z}
    create_atoms 2 single 1.4 5.5 ${z}
    create_atoms 2 single 1.4 5.5 3.5
Created 1 atoms
  using lattice units in orthogonal box = (0 0 0) to (92.831777 92.831777 92.831777)
  create_atoms CPU = 0.000 seconds
    variable x0 equal ${x}
    variable x0 equal 1.4
    variable step equal ${step} + 1
    variable step equal 2 + 1
jump SELF loop_bead
if "${step} > ${N}" then "jump SELF end_inner"
    variable x equal ${x0} + ${dbead}
    variable x equal 1.4 + ${dbead}
    variable x equal 1.4 + 0.2
    variable y equal ${y0} + 1.5*${Ny}
    variable y equal 1 + 1.5*${Ny}
    variable y equal 1 + 1.5*3
    variable z equal ${z0} + 1.5*${Nz}
    variable z equal 2 + 1.5*${Nz}
    variable z equal 2 + 1.5*1
    create_atoms 2 single ${x} ${y} ${z}
    create_atoms 2 single 1.6 ${y} ${z}
    create_atoms 2 single 1.6 5.5 ${z}
    create_atoms 2 single 1.6 5.5 3.5
Created 1 atoms
  using lattice units in orthogonal box = (0 0 0) to (92.831777 92.831777 92.831777)
  create_atoms CPU = 0.000 seconds
    variable x0 equal ${x}
    variable x0 equal 1.6
    variable step equal ${step} + 1
    variable step equal 3 + 1
jump SELF loop_bead
if "${step} > ${N}" then "jump SELF end_inner"
    variable x equal ${x0} + ${dbead}
    variable x equal 1.6 + ${dbead}
    variable x equal 1.6 + 0.2
    variable y equal ${y0} + 1.5*${Ny}
    variable y equal 1 + 1.5*${Ny}
    variable y equal 1 + 1.5*3
    variable z equal ${z0} + 1.5*${Nz}
    variable z equal 2 + 1.5*${Nz}
    variable z equal 2 + 1.5*1
    create_atoms 2 single ${x} ${y} ${z}
    create_atoms 2 single 1.8 ${y} ${z}
    create_atoms 2 single 1.8 5.5 ${z}
    create_atoms 2 single 1.8 5.5 3.5
Created 1 atoms
  using lattice units in orthogonal box = (0 0 0) to (92.831777 92.831777 92.831777)
  create_atoms CPU = 0.000 seconds
    variable x0 equal ${x}
    variable x0 equal 1.8
    variable step equal ${step} + 1
    variable step equal 4 + 1
jump SELF loop_bead
if "${step} > ${N}" then "jump SELF end_inner"
    variable x equal ${x0} + ${dbead}
    variable x equal 1.8 + ${dbead}
    variable x equal 1.8 + 0.2
    variable y equal ${y0} + 1.5*${Ny}
    variable y equal 1 + 1.5*${Ny}
    variable y equal 1 + 1.5*3
    variable z equal ${z0} + 1.5*${Nz}
    variable z equal 2 + 1.5*${Nz}
    variable z equal 2 + 1.5*1
    create_atoms 2 single ${x} ${y} ${z}
    create_atoms 2 single 2 ${y} ${z}
    create_atoms 2 single 2 5.5 ${z}
    create_atoms 2 single 2 5.5 3.5
Created 1 atoms
  using lattice units in orthogonal box = (0 0 0) to (92.831777 92.831777 92.831777)
  create_atoms CPU = 0.000 seconds
    variable x0 equal ${x}
    variable x0 equal 2
    variable step equal ${step} + 1
    variable step equal 5 + 1
jump SELF loop_bead
if "${step} > ${N}" then "jump SELF end_inner"
    variable x equal ${x0} + ${dbead}
    variable x equal 2 + ${dbead}
    variable x equal 2 + 0.2
    variable y equal ${y0} + 1.5*${Ny}
    variable y equal 1 + 1.5*${Ny}
    variable y equal 1 + 1.5*3
    variable z equal ${z0} + 1.5*${Nz}
    variable z equal 2 + 1.5*${Nz}
    variable z equal 2 + 1.5*1
    create_atoms 2 single ${x} ${y} ${z}
    create_atoms 2 single 2.2 ${y} ${z}
    create_atoms 2 single 2.2 5.5 ${z}
    create_atoms 2 single 2.2 5.5 3.5
Created 1 atoms
  using lattice units in orthogonal box = (0 0 0) to (92.831777 92.831777 92.831777)
  create_atoms CPU = 0.000 seconds
    variable x0 equal ${x}
    variable x0 equal 2.2
    variable step equal ${step} + 1
    variable step equal 6 + 1
jump SELF loop_bead
if "${step} > ${N}" then "jump SELF end_inner"
    variable x equal ${x0} + ${dbead}
    variable x equal 2.2 + ${dbead}
    variable x equal 2.2 + 0.2
    variable y equal ${y0} + 1.5*${Ny}
    variable y equal 1 + 1.5*${Ny}
    variable y equal 1 + 1.5*3
    variable z equal ${z0} + 1.5*${Nz}
    variable z equal 2 + 1.5*${Nz}
    variable z equal 2 + 1.5*1
    create_atoms 2 single ${x} ${y} ${z}
    create_atoms 2 single 2.4 ${y} ${z}
    create_atoms 2 single 2.4 5.5 ${z}
    create_atoms 2 single 2.4 5.5 3.5
Created 1 atoms
  using lattice units in orthogonal box = (0 0 0) to (92.831777 92.831777 92.831777)
  create_atoms CPU = 0.000 seconds
    variable x0 equal ${x}
    variable x0 equal 2.4
    variable step equal ${step} + 1
    variable step equal 7 + 1
jump SELF loop_bead
if "${step} > ${N}" then "jump SELF end_inner"
    variable x equal ${x0} + ${dbead}
    variable x equal 2.4 + ${dbead}
    variable x equal 2.4 + 0.2
    variable y equal ${y0} + 1.5*${Ny}
    variable y equal 1 + 1.5*${Ny}
    variable y equal 1 + 1.5*3
    variable z equal ${z0} + 1.5*${Nz}
    variable z equal 2 + 1.5*${Nz}
    variable z equal 2 + 1.5*1
    create_atoms 2 single ${x} ${y} ${z}
    create_atoms 2 single 2.6 ${y} ${z}
    create_atoms 2 single 2.6 5.5 ${z}
    create_atoms 2 single 2.6 5.5 3.5
Created 1 atoms
  using lattice units in orthogonal box = (0 0 0) to (92.831777 92.831777 92.831777)
  create_atoms CPU = 0.000 seconds
    variable x0 equal ${x}
    variable x0 equal 2.6
    variable step equal ${step} + 1
    variable step equal 8 + 1
jump SELF loop_bead
if "${step} > ${N}" then "jump SELF end_inner"
    variable x equal ${x0} + ${dbead}
    variable x equal 2.6 + ${dbead}
    variable x equal 2.6 + 0.2
    variable y equal ${y0} + 1.5*${Ny}
    variable y equal 1 + 1.5*${Ny}
    variable y equal 1 + 1.5*3
    variable z equal ${z0} + 1.5*${Nz}
    variable z equal 2 + 1.5*${Nz}
    variable z equal 2 + 1.5*1
    create_atoms 2 single ${x} ${y} ${z}
    create_atoms 2 single 2.8 ${y} ${z}
    create_atoms 2 single 2.8 5.5 ${z}
    create_atoms 2 single 2.8 5.5 3.5
Created 1 atoms
  using lattice units in orthogonal box = (0 0 0) to (92.831777 92.831777 92.831777)
  create_atoms CPU = 0.000 seconds
    variable x0 equal ${x}
    variable x0 equal 2.8
    variable step equal ${step} + 1
    variable step equal 9 + 1
jump SELF loop_bead
if "${step} > ${N}" then "jump SELF end_inner"
    variable x equal ${x0} + ${dbead}
    variable x equal 2.8 + ${dbead}
    variable x equal 2.8 + 0.2
    variable y equal ${y0} + 1.5*${Ny}
    variable y equal 1 + 1.5*${Ny}
    variable y equal 1 + 1.5*3
    variable z equal ${z0} + 1.5*${Nz}
    variable z equal 2 + 1.5*${Nz}
    variable z equal 2 + 1.5*1
    create_atoms 2 single ${x} ${y} ${z}
    create_atoms 2 single 3 ${y} ${z}
    create_atoms 2 single 3 5.5 ${z}
    create_atoms 2 single 3 5.5 3.5
Created 1 atoms
  using lattice units in orthogonal box = (0 0 0) to (92.831777 92.831777 92.831777)
  create_atoms CPU = 0.000 seconds
    variable x0 equal ${x}
    variable x0 equal 3
    variable step equal ${step} + 1
    variable step equal 10 + 1
jump SELF loop_bead
if "${step} > ${N}" then "jump SELF end_inner"
    variable x equal ${x0} + ${dbead}
    variable x equal 3 + ${dbead}
    variable x equal 3 + 0.2
    variable y equal ${y0} + 1.5*${Ny}
    variable y equal 1 + 1.5*${Ny}
    variable y equal 1 + 1.5*3
    variable z equal ${z0} + 1.5*${Nz}
    variable z equal 2 + 1.5*${Nz}
    variable z equal 2 + 1.5*1
    create_atoms 2 single ${x} ${y} ${z}
    create_atoms 2 single 3.2 ${y} ${z}
    create_atoms 2 single 3.2 5.5 ${z}
    create_atoms 2 single 3.2 5.5 3.5
Created 1 atoms
  using lattice units in orthogonal box = (0 0 0) to (92.831777 92.831777 92.831777)
  create_atoms CPU = 0.000 seconds
    variable x0 equal ${x}
    variable x0 equal 3.2
    variable step equal ${step} + 1
    variable step equal 11 + 1
jump SELF loop_bead
if "${step} > ${N}" then "jump SELF end_inner"
    variable x equal ${x0} + ${dbead}
    variable x equal 3.2 + ${dbead}
    variable x equal 3.2 + 0.2
    variable y equal ${y0} + 1.5*${Ny}
    variable y equal 1 + 1.5*${Ny}
    variable y equal 1 + 1.5*3
    variable z equal ${z0} + 1.5*${Nz}
    variable z equal 2 + 1.5*${Nz}
    variable z equal 2 + 1.5*1
    create_atoms 2 single ${x} ${y} ${z}
    create_atoms 2 single 3.4 ${y} ${z}
    create_atoms 2 single 3.4 5.5 ${z}
    create_atoms 2 single 3.4 5.5 3.5
Created 1 atoms
  using lattice units in orthogonal box = (0 0 0) to (92.831777 92.831777 92.831777)
  create_atoms CPU = 0.000 seconds
    variable x0 equal ${x}
    variable x0 equal 3.4
    variable step equal ${step} + 1
    variable step equal 12 + 1
jump SELF loop_bead
if "${step} > ${N}" then "jump SELF end_inner"
    variable x equal ${x0} + ${dbead}
    variable x equal 3.4 + ${dbead}
    variable x equal 3.4 + 0.2
    variable y equal ${y0} + 1.5*${Ny}
    variable y equal 1 + 1.5*${Ny}
    variable y equal 1 + 1.5*3
    variable z equal ${z0} + 1.5*${Nz}
    variable z equal 2 + 1.5*${Nz}
    variable z equal 2 + 1.5*1
    create_atoms 2 single ${x} ${y} ${z}
    create_atoms 2 single 3.6 ${y} ${z}
    create_atoms 2 single 3.6 5.5 ${z}
    create_atoms 2 single 3.6 5.5 3.5
Created 1 atoms
  using lattice units in orthogonal box = (0 0 0) to (92.831777 92.831777 92.831777)
  create_atoms CPU = 0.000 seconds
    variable x0 equal ${x}
    variable x0 equal 3.6
    variable step equal ${step} + 1
    variable step equal 13 + 1
jump SELF loop_bead
if "${step} > ${N}" then "jump SELF end_inner"
    variable x equal ${x0} + ${dbead}
    variable x equal 3.6 + ${dbead}
    variable x equal 3.6 + 0.2
    variable y equal ${y0} + 1.5*${Ny}
    variable y equal 1 + 1.5*${Ny}
    variable y equal 1 + 1.5*3
    variable z equal ${z0} + 1.5*${Nz}
    variable z equal 2 + 1.5*${Nz}
    variable z equal 2 + 1.5*1
    create_atoms 2 single ${x} ${y} ${z}
    create_atoms 2 single 3.8 ${y} ${z}
    create_atoms 2 single 3.8 5.5 ${z}
    create_atoms 2 single 3.8 5.5 3.5
Created 1 atoms
  using lattice units in orthogonal box = (0 0 0) to (92.831777 92.831777 92.831777)
  create_atoms CPU = 0.000 seconds
    variable x0 equal ${x}
    variable x0 equal 3.8
    variable step equal ${step} + 1
    variable step equal 14 + 1
jump SELF loop_bead
if "${step} > ${N}" then "jump SELF end_inner"
    variable x equal ${x0} + ${dbead}
    variable x equal 3.8 + ${dbead}
    variable x equal 3.8 + 0.2
    variable y equal ${y0} + 1.5*${Ny}
    variable y equal 1 + 1.5*${Ny}
    variable y equal 1 + 1.5*3
    variable z equal ${z0} + 1.5*${Nz}
    variable z equal 2 + 1.5*${Nz}
    variable z equal 2 + 1.5*1
    create_atoms 2 single ${x} ${y} ${z}
    create_atoms 2 single 4 ${y} ${z}
    create_atoms 2 single 4 5.5 ${z}
    create_atoms 2 single 4 5.5 3.5
Created 1 atoms
  using lattice units in orthogonal box = (0 0 0) to (92.831777 92.831777 92.831777)
  create_atoms CPU = 0.000 seconds
    variable x0 equal ${x}
    variable x0 equal 4
    variable step equal ${step} + 1
    variable step equal 15 + 1
jump SELF loop_bead
if "${step} > ${N}" then "jump SELF end_inner"
    variable x equal ${x0} + ${dbead}
    variable x equal 4 + ${dbead}
    variable x equal 4 + 0.2
    variable y equal ${y0} + 1.5*${Ny}
    variable y equal 1 + 1.5*${Ny}
    variable y equal 1 + 1.5*3
    variable z equal ${z0} + 1.5*${Nz}
    variable z equal 2 + 1.5*${Nz}
    variable z equal 2 + 1.5*1
    create_atoms 2 single ${x} ${y} ${z}
    create_atoms 2 single 4.2 ${y} ${z}
    create_atoms 2 single 4.2 5.5 ${z}
    create_atoms 2 single 4.2 5.5 3.5
Created 1 atoms
  using lattice units in orthogonal box = (0 0 0) to (92.831777 92.831777 92.831777)
  create_atoms CPU = 0.000 seconds
    variable x0 equal ${x}
    variable x0 equal 4.2
    variable step equal ${step} + 1
    variable step equal 16 + 1
jump SELF loop_bead
if "${step} > ${N}" then "jump SELF end_inner"
    variable x equal ${x0} + ${dbead}
    variable x equal 4.2 + ${dbead}
    variable x equal 4.2 + 0.2
    variable y equal ${y0} + 1.5*${Ny}
    variable y equal 1 + 1.5*${Ny}
    variable y equal 1 + 1.5*3
    variable z equal ${z0} + 1.5*${Nz}
    variable z equal 2 + 1.5*${Nz}
    variable z equal 2 + 1.5*1
    create_atoms 2 single ${x} ${y} ${z}
    create_atoms 2 single 4.4 ${y} ${z}
    create_atoms 2 single 4.4 5.5 ${z}
    create_atoms 2 single 4.4 5.5 3.5
Created 1 atoms
  using lattice units in orthogonal box = (0 0 0) to (92.831777 92.831777 92.831777)
  create_atoms CPU = 0.000 seconds
    variable x0 equal ${x}
    variable x0 equal 4.4
    variable step equal ${step} + 1
    variable step equal 17 + 1
jump SELF loop_bead
if "${step} > ${N}" then "jump SELF end_inner"
    variable x equal ${x0} + ${dbead}
    variable x equal 4.4 + ${dbead}
    variable x equal 4.4 + 0.2
    variable y equal ${y0} + 1.5*${Ny}
    variable y equal 1 + 1.5*${Ny}
    variable y equal 1 + 1.5*3
    variable z equal ${z0} + 1.5*${Nz}
    variable z equal 2 + 1.5*${Nz}
    variable z equal 2 + 1.5*1
    create_atoms 2 single ${x} ${y} ${z}
    create_atoms 2 single 4.6 ${y} ${z}
    create_atoms 2 single 4.6 5.5 ${z}
    create_atoms 2 single 4.6 5.5 3.5
Created 1 atoms
  using lattice units in orthogonal box = (0 0 0) to (92.831777 92.831777 92.831777)
  create_atoms CPU = 0.000 seconds
    variable x0 equal ${x}
    variable x0 equal 4.6
    variable step equal ${step} + 1
    variable step equal 18 + 1
jump SELF loop_bead
if "${step} > ${N}" then "jump SELF end_inner"
    variable x equal ${x0} + ${dbead}
    variable x equal 4.6 + ${dbead}
    variable x equal 4.6 + 0.2
    variable y equal ${y0} + 1.5*${Ny}
    variable y equal 1 + 1.5*${Ny}
    variable y equal 1 + 1.5*3
    variable z equal ${z0} + 1.5*${Nz}
    variable z equal 2 + 1.5*${Nz}
    variable z equal 2 + 1.5*1
    create_atoms 2 single ${x} ${y} ${z}
    create_atoms 2 single 4.8 ${y} ${z}
    create_atoms 2 single 4.8 5.5 ${z}
    create_atoms 2 single 4.8 5.5 3.5
Created 1 atoms
  using lattice units in orthogonal box = (0 0 0) to (92.831777 92.831777 92.831777)
  create_atoms CPU = 0.000 seconds
    variable x0 equal ${x}
    variable x0 equal 4.8
    variable step equal ${step} + 1
    variable step equal 19 + 1
jump SELF loop_bead
if "${step} > ${N}" then "jump SELF end_inner"
    variable x equal ${x0} + ${dbead}
    variable x equal 4.8 + ${dbead}
    variable x equal 4.8 + 0.2
    variable y equal ${y0} + 1.5*${Ny}
    variable y equal 1 + 1.5*${Ny}
    variable y equal 1 + 1.5*3
    variable z equal ${z0} + 1.5*${Nz}
    variable z equal 2 + 1.5*${Nz}
    variable z equal 2 + 1.5*1
    create_atoms 2 single ${x} ${y} ${z}
    create_atoms 2 single 5 ${y} ${z}
    create_atoms 2 single 5 5.5 ${z}
    create_atoms 2 single 5 5.5 3.5
Created 1 atoms
  using lattice units in orthogonal box = (0 0 0) to (92.831777 92.831777 92.831777)
  create_atoms CPU = 0.000 seconds
    variable x0 equal ${x}
    variable x0 equal 5
    variable step equal ${step} + 1
    variable step equal 20 + 1
jump SELF loop_bead
if "${step} > ${N}" then "jump SELF end_inner"
    variable x equal ${x0} + ${dbead}
    variable x equal 5 + ${dbead}
    variable x equal 5 + 0.2
    variable y equal ${y0} + 1.5*${Ny}
    variable y equal 1 + 1.5*${Ny}
    variable y equal 1 + 1.5*3
    variable z equal ${z0} + 1.5*${Nz}
    variable z equal 2 + 1.5*${Nz}
    variable z equal 2 + 1.5*1
    create_atoms 2 single ${x} ${y} ${z}
    create_atoms 2 single 5.2 ${y} ${z}
    create_atoms 2 single 5.2 5.5 ${z}
    create_atoms 2 single 5.2 5.5 3.5
Created 1 atoms
  using lattice units in orthogonal box = (0 0 0) to (92.831777 92.831777 92.831777)
  create_atoms CPU = 0.000 seconds
    variable x0 equal ${x}
    variable x0 equal 5.2
    variable step equal ${step} + 1
    variable step equal 21 + 1
jump SELF loop_bead
if "${step} > ${N}" then "jump SELF end_inner"
    variable x equal ${x0} + ${dbead}
    variable x equal 5.2 + ${dbead}
    variable x equal 5.2 + 0.2
    variable y equal ${y0} + 1.5*${Ny}
    variable y equal 1 + 1.5*${Ny}
    variable y equal 1 + 1.5*3
    variable z equal ${z0} + 1.5*${Nz}
    variable z equal 2 + 1.5*${Nz}
    variable z equal 2 + 1.5*1
    create_atoms 2 single ${x} ${y} ${z}
    create_atoms 2 single 5.4 ${y} ${z}
    create_atoms 2 single 5.4 5.5 ${z}
    create_atoms 2 single 5.4 5.5 3.5
Created 1 atoms
  using lattice units in orthogonal box = (0 0 0) to (92.831777 92.831777 92.831777)
  create_atoms CPU = 0.000 seconds
    variable x0 equal ${x}
    variable x0 equal 5.4
    variable step equal ${step} + 1
    variable step equal 22 + 1
jump SELF loop_bead
if "${step} > ${N}" then "jump SELF end_inner"
    variable x equal ${x0} + ${dbead}
    variable x equal 5.4 + ${dbead}
    variable x equal 5.4 + 0.2
    variable y equal ${y0} + 1.5*${Ny}
    variable y equal 1 + 1.5*${Ny}
    variable y equal 1 + 1.5*3
    variable z equal ${z0} + 1.5*${Nz}
    variable z equal 2 + 1.5*${Nz}
    variable z equal 2 + 1.5*1
    create_atoms 2 single ${x} ${y} ${z}
    create_atoms 2 single 5.6 ${y} ${z}
    create_atoms 2 single 5.6 5.5 ${z}
    create_atoms 2 single 5.6 5.5 3.5
Created 1 atoms
  using lattice units in orthogonal box = (0 0 0) to (92.831777 92.831777 92.831777)
  create_atoms CPU = 0.000 seconds
    variable x0 equal ${x}
    variable x0 equal 5.6
    variable step equal ${step} + 1
    variable step equal 23 + 1
jump SELF loop_bead
if "${step} > ${N}" then "jump SELF end_inner"
    variable x equal ${x0} + ${dbead}
    variable x equal 5.6 + ${dbead}
    variable x equal 5.6 + 0.2
    variable y equal ${y0} + 1.5*${Ny}
    variable y equal 1 + 1.5*${Ny}
    variable y equal 1 + 1.5*3
    variable z equal ${z0} + 1.5*${Nz}
    variable z equal 2 + 1.5*${Nz}
    variable z equal 2 + 1.5*1
    create_atoms 2 single ${x} ${y} ${z}
    create_atoms 2 single 5.8 ${y} ${z}
    create_atoms 2 single 5.8 5.5 ${z}
    create_atoms 2 single 5.8 5.5 3.5
Created 1 atoms
  using lattice units in orthogonal box = (0 0 0) to (92.831777 92.831777 92.831777)
  create_atoms CPU = 0.000 seconds
    variable x0 equal ${x}
    variable x0 equal 5.8
    variable step equal ${step} + 1
    variable step equal 24 + 1
jump SELF loop_bead
if "${step} > ${N}" then "jump SELF end_inner"
    variable x equal ${x0} + ${dbead}
    variable x equal 5.8 + ${dbead}
    variable x equal 5.8 + 0.2
    variable y equal ${y0} + 1.5*${Ny}
    variable y equal 1 + 1.5*${Ny}
    variable y equal 1 + 1.5*3
    variable z equal ${z0} + 1.5*${Nz}
    variable z equal 2 + 1.5*${Nz}
    variable z equal 2 + 1.5*1
    create_atoms 2 single ${x} ${y} ${z}
    create_atoms 2 single 6 ${y} ${z}
    create_atoms 2 single 6 5.5 ${z}
    create_atoms 2 single 6 5.5 3.5
Created 1 atoms
  using lattice units in orthogonal box = (0 0 0) to (92.831777 92.831777 92.831777)
  create_atoms CPU = 0.000 seconds
    variable x0 equal ${x}
    variable x0 equal 6
    variable step equal ${step} + 1
    variable step equal 25 + 1
jump SELF loop_bead
if "${step} > ${N}" then "jump SELF end_inner"
    variable x equal ${x0} + ${dbead}
    variable x equal 6 + ${dbead}
    variable x equal 6 + 0.2
    variable y equal ${y0} + 1.5*${Ny}
    variable y equal 1 + 1.5*${Ny}
    variable y equal 1 + 1.5*3
    variable z equal ${z0} + 1.5*${Nz}
    variable z equal 2 + 1.5*${Nz}
    variable z equal 2 + 1.5*1
    create_atoms 2 single ${x} ${y} ${z}
    create_atoms 2 single 6.2 ${y} ${z}
    create_atoms 2 single 6.2 5.5 ${z}
    create_atoms 2 single 6.2 5.5 3.5
Created 1 atoms
  using lattice units in orthogonal box = (0 0 0) to (92.831777 92.831777 92.831777)
  create_atoms CPU = 0.000 seconds
    variable x0 equal ${x}
    variable x0 equal 6.2
    variable step equal ${step} + 1
    variable step equal 26 + 1
jump SELF loop_bead
if "${step} > ${N}" then "jump SELF end_inner"
    variable x equal ${x0} + ${dbead}
    variable x equal 6.2 + ${dbead}
    variable x equal 6.2 + 0.2
    variable y equal ${y0} + 1.5*${Ny}
    variable y equal 1 + 1.5*${Ny}
    variable y equal 1 + 1.5*3
    variable z equal ${z0} + 1.5*${Nz}
    variable z equal 2 + 1.5*${Nz}
    variable z equal 2 + 1.5*1
    create_atoms 2 single ${x} ${y} ${z}
    create_atoms 2 single 6.4 ${y} ${z}
    create_atoms 2 single 6.4 5.5 ${z}
    create_atoms 2 single 6.4 5.5 3.5
Created 1 atoms
  using lattice units in orthogonal box = (0 0 0) to (92.831777 92.831777 92.831777)
  create_atoms CPU = 0.000 seconds
    variable x0 equal ${x}
    variable x0 equal 6.4
    variable step equal ${step} + 1
    variable step equal 27 + 1
jump SELF loop_bead
if "${step} > ${N}" then "jump SELF end_inner"
    variable x equal ${x0} + ${dbead}
    variable x equal 6.4 + ${dbead}
    variable x equal 6.4 + 0.2
    variable y equal ${y0} + 1.5*${Ny}
    variable y equal 1 + 1.5*${Ny}
    variable y equal 1 + 1.5*3
    variable z equal ${z0} + 1.5*${Nz}
    variable z equal 2 + 1.5*${Nz}
    variable z equal 2 + 1.5*1
    create_atoms 2 single ${x} ${y} ${z}
    create_atoms 2 single 6.6 ${y} ${z}
    create_atoms 2 single 6.6 5.5 ${z}
    create_atoms 2 single 6.6 5.5 3.5
Created 1 atoms
  using lattice units in orthogonal box = (0 0 0) to (92.831777 92.831777 92.831777)
  create_atoms CPU = 0.000 seconds
    variable x0 equal ${x}
    variable x0 equal 6.6
    variable step equal ${step} + 1
    variable step equal 28 + 1
jump SELF loop_bead
if "${step} > ${N}" then "jump SELF end_inner"
    variable x equal ${x0} + ${dbead}
    variable x equal 6.6 + ${dbead}
    variable x equal 6.6 + 0.2
    variable y equal ${y0} + 1.5*${Ny}
    variable y equal 1 + 1.5*${Ny}
    variable y equal 1 + 1.5*3
    variable z equal ${z0} + 1.5*${Nz}
    variable z equal 2 + 1.5*${Nz}
    variable z equal 2 + 1.5*1
    create_atoms 2 single ${x} ${y} ${z}
    create_atoms 2 single 6.8 ${y} ${z}
    create_atoms 2 single 6.8 5.5 ${z}
    create_atoms 2 single 6.8 5.5 3.5
Created 1 atoms
  using lattice units in orthogonal box = (0 0 0) to (92.831777 92.831777 92.831777)
  create_atoms CPU = 0.000 seconds
    variable x0 equal ${x}
    variable x0 equal 6.8
    variable step equal ${step} + 1
    variable step equal 29 + 1
jump SELF loop_bead
if "${step} > ${N}" then "jump SELF end_inner"
    variable x equal ${x0} + ${dbead}
    variable x equal 6.8 + ${dbead}
    variable x equal 6.8 + 0.2
    variable y equal ${y0} + 1.5*${Ny}
    variable y equal 1 + 1.5*${Ny}
    variable y equal 1 + 1.5*3
    variable z equal ${z0} + 1.5*${Nz}
    variable z equal 2 + 1.5*${Nz}
    variable z equal 2 + 1.5*1
    create_atoms 2 single ${x} ${y} ${z}
    create_atoms 2 single 7 ${y} ${z}
    create_atoms 2 single 7 5.5 ${z}
    create_atoms 2 single 7 5.5 3.5
Created 1 atoms
  using lattice units in orthogonal box = (0 0 0) to (92.831777 92.831777 92.831777)
  create_atoms CPU = 0.000 seconds
    variable x0 equal ${x}
    variable x0 equal 7
    variable step equal ${step} + 1
    variable step equal 30 + 1
jump SELF loop_bead
if "${step} > ${N}" then "jump SELF end_inner"
jump SELF end_inner
variable x0 equal 1.0
variable y0 equal 1.0
variable step equal 1
next Ny
jump SELF loop_y
label loop_bead
if "${step} > ${N}" then "jump SELF end_inner"
    variable x equal ${x0} + ${dbead}
    variable x equal 1 + ${dbead}
    variable x equal 1 + 0.2
    variable y equal ${y0} + 1.5*${Ny}
    variable y equal 1 + 1.5*${Ny}
    variable y equal 1 + 1.5*4
    variable z equal ${z0} + 1.5*${Nz}
    variable z equal 2 + 1.5*${Nz}
    variable z equal 2 + 1.5*1
    create_atoms 2 single ${x} ${y} ${z}
    create_atoms 2 single 1.2 ${y} ${z}
    create_atoms 2 single 1.2 7 ${z}
    create_atoms 2 single 1.2 7 3.5
Created 1 atoms
  using lattice units in orthogonal box = (0 0 0) to (92.831777 92.831777 92.831777)
  create_atoms CPU = 0.000 seconds
    variable x0 equal ${x}
    variable x0 equal 1.2
    variable step equal ${step} + 1
    variable step equal 1 + 1
jump SELF loop_bead
if "${step} > ${N}" then "jump SELF end_inner"
    variable x equal ${x0} + ${dbead}
    variable x equal 1.2 + ${dbead}
    variable x equal 1.2 + 0.2
    variable y equal ${y0} + 1.5*${Ny}
    variable y equal 1 + 1.5*${Ny}
    variable y equal 1 + 1.5*4
    variable z equal ${z0} + 1.5*${Nz}
    variable z equal 2 + 1.5*${Nz}
    variable z equal 2 + 1.5*1
    create_atoms 2 single ${x} ${y} ${z}
    create_atoms 2 single 1.4 ${y} ${z}
    create_atoms 2 single 1.4 7 ${z}
    create_atoms 2 single 1.4 7 3.5
Created 1 atoms
  using lattice units in orthogonal box = (0 0 0) to (92.831777 92.831777 92.831777)
  create_atoms CPU = 0.000 seconds
    variable x0 equal ${x}
    variable x0 equal 1.4
    variable step equal ${step} + 1
    variable step equal 2 + 1
jump SELF loop_bead
if "${step} > ${N}" then "jump SELF end_inner"
    variable x equal ${x0} + ${dbead}
    variable x equal 1.4 + ${dbead}
    variable x equal 1.4 + 0.2
    variable y equal ${y0} + 1.5*${Ny}
    variable y equal 1 + 1.5*${Ny}
    variable y equal 1 + 1.5*4
    variable z equal ${z0} + 1.5*${Nz}
    variable z equal 2 + 1.5*${Nz}
    variable z equal 2 + 1.5*1
    create_atoms 2 single ${x} ${y} ${z}
    create_atoms 2 single 1.6 ${y} ${z}
    create_atoms 2 single 1.6 7 ${z}
    create_atoms 2 single 1.6 7 3.5
Created 1 atoms
  using lattice units in orthogonal box = (0 0 0) to (92.831777 92.831777 92.831777)
  create_atoms CPU = 0.000 seconds
    variable x0 equal ${x}
    variable x0 equal 1.6
    variable step equal ${step} + 1
    variable step equal 3 + 1
jump SELF loop_bead
if "${step} > ${N}" then "jump SELF end_inner"
    variable x equal ${x0} + ${dbead}
    variable x equal 1.6 + ${dbead}
    variable x equal 1.6 + 0.2
    variable y equal ${y0} + 1.5*${Ny}
    variable y equal 1 + 1.5*${Ny}
    variable y equal 1 + 1.5*4
    variable z equal ${z0} + 1.5*${Nz}
    variable z equal 2 + 1.5*${Nz}
    variable z equal 2 + 1.5*1
    create_atoms 2 single ${x} ${y} ${z}
    create_atoms 2 single 1.8 ${y} ${z}
    create_atoms 2 single 1.8 7 ${z}
    create_atoms 2 single 1.8 7 3.5
Created 1 atoms
  using lattice units in orthogonal box = (0 0 0) to (92.831777 92.831777 92.831777)
  create_atoms CPU = 0.000 seconds
    variable x0 equal ${x}
    variable x0 equal 1.8
    variable step equal ${step} + 1
    variable step equal 4 + 1
jump SELF loop_bead
if "${step} > ${N}" then "jump SELF end_inner"
    variable x equal ${x0} + ${dbead}
    variable x equal 1.8 + ${dbead}
    variable x equal 1.8 + 0.2
    variable y equal ${y0} + 1.5*${Ny}
    variable y equal 1 + 1.5*${Ny}
    variable y equal 1 + 1.5*4
    variable z equal ${z0} + 1.5*${Nz}
    variable z equal 2 + 1.5*${Nz}
    variable z equal 2 + 1.5*1
    create_atoms 2 single ${x} ${y} ${z}
    create_atoms 2 single 2 ${y} ${z}
    create_atoms 2 single 2 7 ${z}
    create_atoms 2 single 2 7 3.5
Created 1 atoms
  using lattice units in orthogonal box = (0 0 0) to (92.831777 92.831777 92.831777)
  create_atoms CPU = 0.000 seconds
    variable x0 equal ${x}
    variable x0 equal 2
    variable step equal ${step} + 1
    variable step equal 5 + 1
jump SELF loop_bead
if "${step} > ${N}" then "jump SELF end_inner"
    variable x equal ${x0} + ${dbead}
    variable x equal 2 + ${dbead}
    variable x equal 2 + 0.2
    variable y equal ${y0} + 1.5*${Ny}
    variable y equal 1 + 1.5*${Ny}
    variable y equal 1 + 1.5*4
    variable z equal ${z0} + 1.5*${Nz}
    variable z equal 2 + 1.5*${Nz}
    variable z equal 2 + 1.5*1
    create_atoms 2 single ${x} ${y} ${z}
    create_atoms 2 single 2.2 ${y} ${z}
    create_atoms 2 single 2.2 7 ${z}
    create_atoms 2 single 2.2 7 3.5
Created 1 atoms
  using lattice units in orthogonal box = (0 0 0) to (92.831777 92.831777 92.831777)
  create_atoms CPU = 0.000 seconds
    variable x0 equal ${x}
    variable x0 equal 2.2
    variable step equal ${step} + 1
    variable step equal 6 + 1
jump SELF loop_bead
if "${step} > ${N}" then "jump SELF end_inner"
    variable x equal ${x0} + ${dbead}
    variable x equal 2.2 + ${dbead}
    variable x equal 2.2 + 0.2
    variable y equal ${y0} + 1.5*${Ny}
    variable y equal 1 + 1.5*${Ny}
    variable y equal 1 + 1.5*4
    variable z equal ${z0} + 1.5*${Nz}
    variable z equal 2 + 1.5*${Nz}
    variable z equal 2 + 1.5*1
    create_atoms 2 single ${x} ${y} ${z}
    create_atoms 2 single 2.4 ${y} ${z}
    create_atoms 2 single 2.4 7 ${z}
    create_atoms 2 single 2.4 7 3.5
Created 1 atoms
  using lattice units in orthogonal box = (0 0 0) to (92.831777 92.831777 92.831777)
  create_atoms CPU = 0.000 seconds
    variable x0 equal ${x}
    variable x0 equal 2.4
    variable step equal ${step} + 1
    variable step equal 7 + 1
jump SELF loop_bead
if "${step} > ${N}" then "jump SELF end_inner"
    variable x equal ${x0} + ${dbead}
    variable x equal 2.4 + ${dbead}
    variable x equal 2.4 + 0.2
    variable y equal ${y0} + 1.5*${Ny}
    variable y equal 1 + 1.5*${Ny}
    variable y equal 1 + 1.5*4
    variable z equal ${z0} + 1.5*${Nz}
    variable z equal 2 + 1.5*${Nz}
    variable z equal 2 + 1.5*1
    create_atoms 2 single ${x} ${y} ${z}
    create_atoms 2 single 2.6 ${y} ${z}
    create_atoms 2 single 2.6 7 ${z}
    create_atoms 2 single 2.6 7 3.5
Created 1 atoms
  using lattice units in orthogonal box = (0 0 0) to (92.831777 92.831777 92.831777)
  create_atoms CPU = 0.000 seconds
    variable x0 equal ${x}
    variable x0 equal 2.6
    variable step equal ${step} + 1
[...]
367000  ekin = 1.22952332498028 | epot = 0.000390248743363186 | erot = 2.61996030994682 | ebond = 0.0458118718399557 | etot = 3.89568575551043
368000  ekin = 1.21008211348114 | epot = 0 | erot = 2.61996030994682 | ebond = 0.0656433338058692 | etot = 3.89568575723383
369000  ekin = 1.19656139044799 | epot = 0.000230340460846357 | erot = 2.61996030994682 | ebond = 0.078933711234959 | etot = 3.89568575209062
370000  ekin = 1.20470635746524 | epot = 2.72992625361956e-05 | erot = 2.61996030994682 | ebond = 0.0709917807814356 | etot = 3.89568574745604
371000  ekin = 1.19105276876199 | epot = 1.04120587198775e-05 | erot = 2.61996030994682 | ebond = 0.0846622745671172 | etot = 3.89568576533465
372000  ekin = 1.21275795570504 | epot = 0 | erot = 2.61996030994682 | ebond = 0.0629674952521855 | etot = 3.89568576090405
373000  ekin = 1.24134859407785 | epot = 2.66609032642529e-05 | erot = 2.61996030994682 | ebond = 0.0343501825766338 | etot = 3.89568574750457
374000  ekin = 1.22868961056819 | epot = 0.000460184246959983 | erot = 2.61996030994682 | ebond = 0.0465756496397303 | etot = 3.8956857544017
375000  ekin = 1.23491364257917 | epot = 1.14098717424183e-06 | erot = 2.61996030994682 | ebond = 0.040810657914766 | etot = 3.89568575142793
376000  ekin = 1.21778898732164 | epot = 0.000426456446459444 | erot = 2.61996030994682 | ebond = 0.0575099996540249 | etot = 3.89568575336895
377000  ekin = 1.19927496533703 | epot = 0.000250382471887911 | erot = 2.61996030994682 | ebond = 0.0762000909728477 | etot = 3.89568574872859
378000  ekin = 1.2072747178907 | epot = 0.000211354396159269 | erot = 2.61996030994682 | ebond = 0.0682393608259715 | etot = 3.89568574305965
379000  ekin = 1.19081508603074 | epot = 0.000116552603503683 | erot = 2.61996030994682 | ebond = 0.0847938120901932 | etot = 3.89568576067126
380000  ekin = 1.211550881596 | epot = 0 | erot = 2.61996030994682 | ebond = 0.0641745661351823 | etot = 3.89568575767801
381000  ekin = 1.23789260419029 | epot = 0.00179487261974187 | erot = 2.61996030994682 | ebond = 0.0360379566188797 | etot = 3.89568574337573
382000  ekin = 1.22203725744914 | epot = 8.7656238995093e-06 | erot = 2.61996030994682 | ebond = 0.0536794330375444 | etot = 3.8956857660574
383000  ekin = 1.23276096042171 | epot = 0 | erot = 2.61996030994682 | ebond = 0.0429644905024496 | etot = 3.89568576087098
384000  ekin = 1.21749776794758 | epot = 1.77159654869419e-05 | erot = 2.61996030994682 | ebond = 0.0582099611469769 | etot = 3.89568575500687
385000  ekin = 1.20523465717027 | epot = 6.42060308146397e-05 | erot = 2.61996030994682 | ebond = 0.0704265737194116 | etot = 3.89568574686732
386000  ekin = 1.19586955987934 | epot = 0.000467753545702054 | erot = 2.61996030994682 | ebond = 0.0793881270215286 | etot = 3.8956857503934
387000  ekin = 1.19634644381481 | epot = 0.000278195899466316 | erot = 2.61996030994682 | ebond = 0.0791007985979539 | etot = 3.89568574825905
388000  ekin = 1.20622562393412 | epot = 7.57244431603965e-08 | erot = 2.61996030994682 | ebond = 0.0694997411533693 | etot = 3.89568575075875
389000  ekin = 1.23679561327014 | epot = 4.32022886560635e-05 | erot = 2.61996030994682 | ebond = 0.0388866174799489 | etot = 3.89568574298557
390000  ekin = 1.22041951708861 | epot = 0 | erot = 2.61996030994682 | ebond = 0.0553059350313084 | etot = 3.89568576206674
391000  ekin = 1.24114482738095 | epot = 9.25388630211854e-05 | erot = 2.61996030994682 | ebond = 0.0344880774409297 | etot = 3.89568575363172
392000  ekin = 1.22391714572974 | epot = 0 | erot = 2.61996030994682 | ebond = 0.0518082939748388 | etot = 3.8956857496514
393000  ekin = 1.20761809388737 | epot = 0 | erot = 2.61996030994682 | ebond = 0.068107345423961 | etot = 3.89568574925816
394000  ekin = 1.19449335615041 | epot = 5.19345234380464e-05 | erot = 2.61996030994682 | ebond = 0.0811801533501434 | etot = 3.89568575397081
395000  ekin = 1.19895995603253 | epot = 1.03411042480239e-05 | erot = 2.61996030994682 | ebond = 0.0767551427204704 | etot = 3.89568574980408
396000  ekin = 1.20055567308033 | epot = 0 | erot = 2.61996030994682 | ebond = 0.0751697717776362 | etot = 3.89568575480479
397000  ekin = 1.22495717982464 | epot = 0.000270803643227846 | erot = 2.61996030994682 | ebond = 0.0504974601766759 | etot = 3.89568575359136
398000  ekin = 1.2318146153056 | epot = 0 | erot = 2.61996030994682 | ebond = 0.0439108262380081 | etot = 3.89568575149044
399000  ekin = 1.237365371181 | epot = 1.73357184761191e-05 | erot = 2.61996030994682 | ebond = 0.0383427301443428 | etot = 3.89568574699064
400000  ekin = 1.23322737530815 | epot = 9.11536188969442e-05 | erot = 2.61996030994682 | ebond = 0.0424069099084941 | etot = 3.89568574878237
401000  ekin = 1.19484807132605 | epot = 0.000251450365644779 | erot = 2.61996030994682 | ebond = 0.0806259354148129 | etot = 3.89568576705333
402000  ekin = 1.20068040582125 | epot = 7.91017071730682e-05 | erot = 2.61996030994682 | ebond = 0.0749659381088637 | etot = 3.89568575558411
403000  ekin = 1.19669921320694 | epot = 0.000209010847540547 | erot = 2.61996030994682 | ebond = 0.078817220906474 | etot = 3.89568575490778
404000  ekin = 1.18794319556122 | epot = 3.13596185952392e-06 | erot = 2.61996030994682 | ebond = 0.0877791294989862 | etot = 3.89568577096889
405000  ekin = 1.22518765524992 | epot = 0 | erot = 2.61996030994682 | ebond = 0.0505377836615524 | etot = 3.8956857488583
406000  ekin = 1.22908085266153 | epot = 0.000330956762727652 | erot = 2.61996030994682 | ebond = 0.0463136368572642 | etot = 3.89568575622835
407000  ekin = 1.23201127656458 | epot = 7.07659249671311e-06 | erot = 2.61996030994682 | ebond = 0.043707095606991 | etot = 3.89568575871089
408000  ekin = 1.23061577276802 | epot = 0 | erot = 2.61996030994682 | ebond = 0.0451096741684687 | etot = 3.89568575688331
409000  ekin = 1.21134459488103 | epot = 4.47828206085465e-05 | erot = 2.61996030994682 | ebond = 0.0643360655147209 | etot = 3.89568575316318
410000  ekin = 1.20682478996138 | epot = 4.15012111898427e-06 | erot = 2.61996030994682 | ebond = 0.0688964900595828 | etot = 3.89568574008891
411000  ekin = 1.19898233086839 | epot = 0 | erot = 2.61996030994682 | ebond = 0.076743104641218 | etot = 3.89568574545643
412000  ekin = 1.1970433636367 | epot = 0 | erot = 2.61996030994682 | ebond = 0.0786820779246516 | etot = 3.89568575150817
413000  ekin = 1.22429252670192 | epot = 3.42787946880363e-05 | erot = 2.61996030994682 | ebond = 0.0513986250894044 | etot = 3.89568574053284
414000  ekin = 1.23002646768312 | epot = 3.78971999207001e-05 | erot = 2.61996030994682 | ebond = 0.0456610803523867 | etot = 3.89568575518225
415000  ekin = 1.22899363685418 | epot = 0 | erot = 2.61996030994682 | ebond = 0.046731814356042 | etot = 3.89568576115705
416000  ekin = 1.23726825043105 | epot = 0.000384786953573246 | erot = 2.61996030994682 | ebond = 0.0380723977325969 | etot = 3.89568574506405
417000  ekin = 1.22360555394244 | epot = 0 | erot = 2.61996030994682 | ebond = 0.052119886609365 | etot = 3.89568575049863
418000  ekin = 1.19617814329598 | epot = 2.42646139977376e-05 | erot = 2.61996030994682 | ebond = 0.0795230392872238 | etot = 3.89568575714403
419000  ekin = 1.19901111523313 | epot = 3.35318961486308e-09 | erot = 2.61996030994682 | ebond = 0.0767143246229755 | etot = 3.89568575315612
420000  ekin = 1.19748203816316 | epot = 0.000111495290484764 | erot = 2.61996030994682 | ebond = 0.0781319092651605 | etot = 3.89568575266563
421000  ekin = 1.21620673246269 | epot = 2.32724354859992e-05 | erot = 2.61996030994682 | ebond = 0.0594954342458121 | etot = 3.89568574909081
422000  ekin = 1.2208811918346 | epot = 3.76401843304452e-05 | erot = 2.61996030994682 | ebond = 0.0548066145452147 | etot = 3.89568575651097
423000  ekin = 1.24251170820529 | epot = 0.000264901707133447 | erot = 2.61996030994682 | ebond = 0.0329488257832899 | etot = 3.89568574564254
424000  ekin = 1.23502961165034 | epot = 0.000249147167601549 | erot = 2.61996030994682 | ebond = 0.0404466826175544 | etot = 3.89568575138232
425000  ekin = 1.22047475747932 | epot = 0.000590666045864996 | erot = 2.61996030994682 | ebond = 0.0546600213048881 | etot = 3.89568575477689
426000  ekin = 1.20188629235244 | epot = 0.000228582578017 | erot = 2.61996030994682 | ebond = 0.0736105694575366 | etot = 3.89568575433482
427000  ekin = 1.1987532955202 | epot = 0 | erot = 2.61996030994682 | ebond = 0.0769721457764018 | etot = 3.89568575124342
428000  ekin = 1.18633621368336 | epot = 0.00182147384519532 | erot = 2.61996030994682 | ebond = 0.087567761366462 | etot = 3.89568575884184
429000  ekin = 1.21419847323274 | epot = 0.000142920602511865 | erot = 2.61996030994682 | ebond = 0.0613840433630486 | etot = 3.89568574714512
430000  ekin = 1.2199968719669 | epot = 0 | erot = 2.61996030994682 | ebond = 0.0557285792846209 | etot = 3.89568576119834
431000  ekin = 1.22357569339365 | epot = 0.000431324805865663 | erot = 2.61996030994682 | ebond = 0.0517184366648636 | etot = 3.8956857648112
432000  ekin = 1.23964905331672 | epot = 2.51824513911592e-05 | erot = 2.61996030994682 | ebond = 0.0360512055677692 | etot = 3.8956857512827
433000  ekin = 1.22498012889783 | epot = 9.74855298022104e-05 | erot = 2.61996030994682 | ebond = 0.0506478242037217 | etot = 3.89568574857818
434000  ekin = 1.20333915020641 | epot = 0.000375123744592254 | erot = 2.61996030994682 | ebond = 0.0720111799809277 | etot = 3.89568576387876
435000  ekin = 1.19069606478678 | epot = 0.000467947698673477 | erot = 2.61996030994682 | ebond = 0.084561443782577 | etot = 3.89568576621486
436000  ekin = 1.19461925117971 | epot = 0.000550211763299391 | erot = 2.61996030994682 | ebond = 0.0805559885420253 | etot = 3.89568576143186
437000  ekin = 1.20857757505385 | epot = 0.000391558292360261 | erot = 2.61996030994682 | ebond = 0.0667563069427562 | etot = 3.89568575023579
438000  ekin = 1.22925133046882 | epot = 8.47906272137822e-05 | erot = 2.61996030994682 | ebond = 0.0463893206633829 | etot = 3.89568575170624
439000  ekin = 1.22074416467419 | epot = 0.000118970285950537 | erot = 2.61996030994682 | ebond = 0.0548623256913201 | etot = 3.89568577059829
440000  ekin = 1.22634913039591 | epot = 1.07393207706696e-05 | erot = 2.61996030994682 | ebond = 0.0493655836270689 | etot = 3.89568576329058
441000  ekin = 1.23254238590498 | epot = 3.32917316815395e-05 | erot = 2.61996030994682 | ebond = 0.0431497558141845 | etot = 3.89568574339768
442000  ekin = 1.20163841122659 | epot = 7.54391981764302e-05 | erot = 2.61996030994682 | ebond = 0.0740115983593811 | etot = 3.89568575873097
443000  ekin = 1.196844927502 | epot = 9.08478581308492e-05 | erot = 2.61996030994682 | ebond = 0.0787896752894251 | etot = 3.89568576059638
444000  ekin = 1.19774686690832 | epot = 0.000137295376903046 | erot = 2.61996030994682 | ebond = 0.0778412856200671 | etot = 3.89568575785211
445000  ekin = 1.2075128869096 | epot = 2.9785463930565e-05 | erot = 2.61996030994682 | ebond = 0.0681827758041661 | etot = 3.89568575812452
446000  ekin = 1.22549122656149 | epot = 1.56477839018399e-05 | erot = 2.61996030994682 | ebond = 0.050218554990671 | etot = 3.89568573928289
447000  ekin = 1.22904827843488 | epot = 7.45860623754813e-05 | erot = 2.61996030994682 | ebond = 0.0466025765676862 | etot = 3.89568575101177
448000  ekin = 1.22010518649958 | epot = 0 | erot = 2.61996030994682 | ebond = 0.0556202641568568 | etot = 3.89568576060327
449000  ekin = 1.22187525991997 | epot = 1.74540239106236e-05 | erot = 2.61996030994682 | ebond = 0.0538327297122604 | etot = 3.89568575360296
450000  ekin = 1.22133016229987 | epot = 0.000106324325783391 | erot = 2.61996030994682 | ebond = 0.0542889551700564 | etot = 3.89568575174253
451000  ekin = 1.19665582487002 | epot = 2.27886213544082e-06 | erot = 2.61996030994682 | ebond = 0.0790673501734007 | etot = 3.89568576385238
452000  ekin = 1.20203214321405 | epot = 0.000239451307401162 | erot = 2.61996030994682 | ebond = 0.0734538583638311 | etot = 3.89568576283211
453000  ekin = 1.21161655044283 | epot = 2.656548625668e-05 | erot = 2.61996030994682 | ebond = 0.0640823204766654 | etot = 3.89568574635258
454000  ekin = 1.20200849679511 | epot = 0.000300981959883373 | erot = 2.61996030994682 | ebond = 0.0734159686769385 | etot = 3.89568575737876
455000  ekin = 1.2325827173709 | epot = 0 | erot = 2.61996030994682 | ebond = 0.0431427163413481 | etot = 3.89568574365907
456000  ekin = 1.21562923987132 | epot = 0.000106231043816962 | erot = 2.61996030994682 | ebond = 0.0599899805552448 | etot = 3.89568576141721
457000  ekin = 1.2305714869536 | epot = 4.19016910346848e-05 | erot = 2.61996030994682 | ebond = 0.0451120575911414 | etot = 3.8956857561826
458000  ekin = 1.22924960844992 | epot = 0 | erot = 2.61996030994682 | ebond = 0.0464758296010625 | etot = 3.89568574799781
459000  ekin = 1.20458153505482 | epot = 0 | erot = 2.61996030994682 | ebond = 0.0711439151393132 | etot = 3.89568576014095
460000  ekin = 1.19364729291991 | epot = 0.000113571964617754 | erot = 2.61996030994682 | ebond = 0.081964590102888 | etot = 3.89568576493424
461000  ekin = 1.20189703732967 | epot = 0 | erot = 2.61996030994682 | ebond = 0.0738283984641938 | etot = 3.89568574574069
462000  ekin = 1.21266645965524 | epot = 0.000126916588646497 | erot = 2.61996030994682 | ebond = 0.0629320582443687 | etot = 3.89568574443508
463000  ekin = 1.2179611817284 | epot = 3.13136134189596e-05 | erot = 2.61996030994682 | ebond = 0.0577329467408437 | etot = 3.89568575202949
464000  ekin = 1.23853906240923 | epot = 1.36538262279773e-06 | erot = 2.61996030994682 | ebond = 0.0371850151099962 | etot = 3.89568575284867
465000  ekin = 1.22517727842314 | epot = 4.4897246655462e-06 | erot = 2.61996030994682 | ebond = 0.0505436854233816 | etot = 3.89568576351801
466000  ekin = 1.22345348259895 | epot = 1.72243981176323e-05 | erot = 2.61996030994682 | ebond = 0.0522547445159106 | etot = 3.89568576145981
467000  ekin = 1.19881275190263 | epot = 4.58474209330539e-06 | erot = 2.61996030994682 | ebond = 0.0769081206177596 | etot = 3.8956857672093
468000  ekin = 1.19298992438251 | epot = 0 | erot = 2.61996030994682 | ebond = 0.0827355287914021 | etot = 3.89568576312074
469000  ekin = 1.19465771236971 | epot = 0.000442320338628399 | erot = 2.61996030994682 | ebond = 0.0806254173882832 | etot = 3.89568576004345
470000  ekin = 1.2077659974974 | epot = 6.56666819644491e-05 | erot = 2.61996030994682 | ebond = 0.067893785050048 | etot = 3.89568575917623
471000  ekin = 1.22059751859803 | epot = 0.000222991098790981 | erot = 2.61996030994682 | ebond = 0.0549049380860308 | etot = 3.89568575772968
472000  ekin = 1.24045188313328 | epot = 0 | erot = 2.61996030994682 | ebond = 0.0352735518704558 | etot = 3.89568574495056
473000  ekin = 1.23073308227995 | epot = 0 | erot = 2.61996030994682 | ebond = 0.0449923607835497 | etot = 3.89568575301032
474000  ekin = 1.20683813066724 | epot = 2.98847384222478e-06 | erot = 2.61996030994682 | ebond = 0.0688843408260651 | etot = 3.89568576991397
475000  ekin = 1.22846962702215 | epot = 0.000322594802345699 | erot = 2.61996030994682 | ebond = 0.0469332088334496 | etot = 3.89568574060477
476000  ekin = 1.19412515484746 | epot = 1.65434821814414e-05 | erot = 2.61996030994682 | ebond = 0.0815837452508079 | etot = 3.89568575352727
477000  ekin = 1.21035260677103 | epot = 3.93377019336505e-06 | erot = 2.61996030994682 | ebond = 0.0653689026737459 | etot = 3.89568575316179
478000  ekin = 1.20913965827688 | epot = 4.94684570034876e-06 | erot = 2.61996030994682 | ebond = 0.0665808320992917 | etot = 3.8956857471687
479000  ekin = 1.21676672600647 | epot = 0.000399136483975993 | erot = 2.61996030994682 | ebond = 0.0585595776491017 | etot = 3.89568575008638
480000  ekin = 1.22569182698341 | epot = 5.93774778111511e-05 | erot = 2.61996030994682 | ebond = 0.0499742451277827 | etot = 3.89568575953583
481000  ekin = 1.22881384051498 | epot = 0 | erot = 2.61996030994682 | ebond = 0.0469116082833146 | etot = 3.89568575874512
482000  ekin = 1.22831850022441 | epot = 4.78593751227496e-05 | erot = 2.61996030994682 | ebond = 0.0473590867733981 | etot = 3.89568575631976
483000  ekin = 1.21539989396211 | epot = 0 | erot = 2.61996030994682 | ebond = 0.0603255548404851 | etot = 3.89568575874942
484000  ekin = 1.20383449908419 | epot = 0 | erot = 2.61996030994682 | ebond = 0.0718909490432315 | etot = 3.89568575807425
485000  ekin = 1.19680351534272 | epot = 9.92786743613805e-05 | erot = 2.61996030994682 | ebond = 0.0788226491484885 | etot = 3.89568575311239
486000  ekin = 1.19986525607407 | epot = 3.5152602415045e-06 | erot = 2.61996030994682 | ebond = 0.0758566781955741 | etot = 3.89568575947671
487000  ekin = 1.2193358901858 | epot = 0.000127938946988815 | erot = 2.61996030994682 | ebond = 0.0562616151510529 | etot = 3.89568575423066
488000  ekin = 1.22599485719803 | epot = 1.76769375462849e-05 | erot = 2.61996030994682 | ebond = 0.0497129200526338 | etot = 3.89568576413503
489000  ekin = 1.22596802397889 | epot = 0.000582628451539502 | erot = 2.61996030994682 | ebond = 0.0491748049160831 | etot = 3.89568576729334
490000  ekin = 1.22128084268179 | epot = 1.15481333945455e-05 | erot = 2.61996030994682 | ebond = 0.0544330679475723 | etot = 3.89568576870958
491000  ekin = 1.20965927147199 | epot = 0 | erot = 2.61996030994682 | ebond = 0.0660661799717954 | etot = 3.89568576139061
492000  ekin = 1.2070821099698 | epot = 1.76533295253023e-05 | erot = 2.61996030994682 | ebond = 0.0686256801760505 | etot = 3.8956857534222
493000  ekin = 1.19425927802832 | epot = 0.000544576183959478 | erot = 2.61996030994682 | ebond = 0.0809216050563716 | etot = 3.89568576921547
494000  ekin = 1.20667538134835 | epot = 0.000218277414061885 | erot = 2.61996030994682 | ebond = 0.0688317879536372 | etot = 3.89568575666287
495000  ekin = 1.21447957685631 | epot = 3.53948058971487e-05 | erot = 2.61996030994682 | ebond = 0.0612104757640998 | etot = 3.89568575737313
496000  ekin = 1.21555560601668 | epot = 1.36467423763054e-05 | erot = 2.61996030994682 | ebond = 0.0601562036821715 | etot = 3.89568576638805
497000  ekin = 1.22916165884243 | epot = 0 | erot = 2.61996030994682 | ebond = 0.0465637961718947 | etot = 3.89568576496115
498000  ekin = 1.22356949768606 | epot = 0.000228370245977716 | erot = 2.61996030994682 | ebond = 0.051927585649529 | etot = 3.89568576352839
499000  ekin = 1.22109033856727 | epot = 5.63464232017363e-06 | erot = 2.61996030994682 | ebond = 0.0546294798569172 | etot = 3.89568576301333
500000  ekin = 1.20989799293879 | epot = 0 | erot = 2.61996030994682 | ebond = 0.0658274484480604 | etot = 3.89568575133368
    500000   0.00028511794  0              2.3260582e-05  0.00045078638  1.0073763e-05
Loop time of 135.578 on 1 procs for 500000 steps with 2830 atoms

Performance: 318636.509 tau/day, 3687.923 timesteps/s, 10.437 Matom-step/s
99.9% CPU use with 1 MPI tasks x 1 OpenMP threads

MPI task timing breakdown:
Section |  min time  |  avg time  |  max time  |%varavg| %total
---------------------------------------------------------------
Pair    | 3.6324     | 3.6324     | 3.6324     |   0.0 |  2.68
Bond    | 1.2195     | 1.2195     | 1.2195     |   0.0 |  0.90
Neigh   | 0.021392   | 0.021392   | 0.021392   |   0.0 |  0.02
Comm    | 0.46623    | 0.46623    | 0.46623    |   0.0 |  0.34
Output  | 2.1564     | 2.1564     | 2.1564     |   0.0 |  1.59
Modify  | 125.69     | 125.69     | 125.69     |   0.0 | 92.71
Other   |            | 2.393      |            |       |  1.76

Nlocal:           2830 ave        2830 max        2830 min
Histogram: 1 0 0 0 0 0 0 0 0 0
Nghost:             73 ave          73 max          73 min
Histogram: 1 0 0 0 0 0 0 0 0 0
Neighs:           1519 ave        1519 max        1519 min
Histogram: 1 0 0 0 0 0 0 0 0 0

Total # of neighbors = 1519
Ave neighs/atom = 0.53674912
Ave special neighs/atom = 0.71236749
Neighbor list builds = 44
Dangerous builds = 0

write_data data_out.* nocoeff
System init for write_data ...
Generated 0 of 1 mixed pair_coeff terms from geometric mixing rule

Total wall time: 0:02:15
