LAMMPS (10 Dec 2025 - Development - patch_10Dec2025-535-gc621e1a2c0-modified)
KOKKOS mode with Kokkos version 5.0.0 is enabled
  using double precision
  using view layout = default
  will use up to 1 GPU(s) per node
  using 2 OpenMP thread(s) per MPI task
package kokkos
###
# Box and units  (use LJ units and periodic boundaries)
###

units           lj
atom_style      hybrid bond ellipsoid
WARNING: Atom style hybrid defines both, per-type and per-atom masses; both must be set, but only per-atom masses will be used (src/atom_vec_hybrid.cpp:132)
dimension	    3
boundary	    p p p
#newton 		    on

lattice		    diamond 0.01
Lattice spacing in x,y,z = 9.2831777 9.2831777 9.2831777
region		    box block 0 10 0 10 0 10
create_box	    2 box bond/types 1 extra/bond/per/atom 2
Created orthogonal box = (0 0 0) to (92.831777 92.831777 92.831777)
  1 by 1 by 1 MPI processor grid
#create_box      2 box

###################################################################
# Create Atoms in empty space
#
region         lower block 1 9 1 9 1 3
create_atoms   1 region lower
Created 1235 atoms
  using lattice units in orthogonal box = (0 0 0) to (92.831777 92.831777 92.831777)
  create_atoms CPU = 0.015 seconds
region         upper block 1 9 1 9 7 9
create_atoms   1 region upper
Created 1235 atoms
  using lattice units in orthogonal box = (0 0 0) to (92.831777 92.831777 92.831777)
  create_atoms CPU = 0.011 seconds

###################################################################
# Create Polymers
#
variable N        equal 30   # Number of beads per polymer
variable Ny_val   equal 4    # Number of polymers placed in y
variable Ny       loop ${Ny_val}
variable Ny       loop 4
variable Nz       loop 3     # Number of polymers placed in z
variable dbead    equal 0.2  # Distance Between Beads
variable step     equal 1    # Step size for loop

# Initialise the first bead
variable x0 equal 1.0
variable y0 equal 1.0
variable z0 equal 2.0

# Create the remaining beads
label loop_z
label loop_y
label loop_bead
if "${step} > ${N}" then "jump SELF end_inner"
    variable x equal ${x0} + ${dbead}
    variable x equal 1 + ${dbead}
    variable x equal 1 + 0.2
    variable y equal ${y0} + 1.5*${Ny}
    variable y equal 1 + 1.5*${Ny}
    variable y equal 1 + 1.5*1
    variable z equal ${z0} + 1.5*${Nz}
    variable z equal 2 + 1.5*${Nz}
    variable z equal 2 + 1.5*1
    create_atoms 2 single ${x} ${y} ${z}
    create_atoms 2 single 1.2 ${y} ${z}
    create_atoms 2 single 1.2 2.5 ${z}
    create_atoms 2 single 1.2 2.5 3.5
Created 1 atoms
  using lattice units in orthogonal box = (0 0 0) to (92.831777 92.831777 92.831777)
  create_atoms CPU = 0.000 seconds
    variable x0 equal ${x}
    variable x0 equal 1.2
    variable step equal ${step} + 1
    variable step equal 1 + 1
jump SELF loop_bead
if "${step} > ${N}" then "jump SELF end_inner"
    variable x equal ${x0} + ${dbead}
    variable x equal 1.2 + ${dbead}
    variable x equal 1.2 + 0.2
    variable y equal ${y0} + 1.5*${Ny}
    variable y equal 1 + 1.5*${Ny}
    variable y equal 1 + 1.5*1
    variable z equal ${z0} + 1.5*${Nz}
    variable z equal 2 + 1.5*${Nz}
    variable z equal 2 + 1.5*1
    create_atoms 2 single ${x} ${y} ${z}
    create_atoms 2 single 1.4 ${y} ${z}
    create_atoms 2 single 1.4 2.5 ${z}
    create_atoms 2 single 1.4 2.5 3.5
Created 1 atoms
  using lattice units in orthogonal box = (0 0 0) to (92.831777 92.831777 92.831777)
  create_atoms CPU = 0.000 seconds
    variable x0 equal ${x}
    variable x0 equal 1.4
    variable step equal ${step} + 1
    variable step equal 2 + 1
jump SELF loop_bead
if "${step} > ${N}" then "jump SELF end_inner"
    variable x equal ${x0} + ${dbead}
    variable x equal 1.4 + ${dbead}
    variable x equal 1.4 + 0.2
    variable y equal ${y0} + 1.5*${Ny}
    variable y equal 1 + 1.5*${Ny}
    variable y equal 1 + 1.5*1
    variable z equal ${z0} + 1.5*${Nz}
    variable z equal 2 + 1.5*${Nz}
    variable z equal 2 + 1.5*1
    create_atoms 2 single ${x} ${y} ${z}
    create_atoms 2 single 1.6 ${y} ${z}
    create_atoms 2 single 1.6 2.5 ${z}
    create_atoms 2 single 1.6 2.5 3.5
Created 1 atoms
  using lattice units in orthogonal box = (0 0 0) to (92.831777 92.831777 92.831777)
  create_atoms CPU = 0.000 seconds
    variable x0 equal ${x}
    variable x0 equal 1.6
    variable step equal ${step} + 1
    variable step equal 3 + 1
jump SELF loop_bead
if "${step} > ${N}" then "jump SELF end_inner"
    variable x equal ${x0} + ${dbead}
    variable x equal 1.6 + ${dbead}
    variable x equal 1.6 + 0.2
    variable y equal ${y0} + 1.5*${Ny}
    variable y equal 1 + 1.5*${Ny}
    variable y equal 1 + 1.5*1
    variable z equal ${z0} + 1.5*${Nz}
    variable z equal 2 + 1.5*${Nz}
    variable z equal 2 + 1.5*1
    create_atoms 2 single ${x} ${y} ${z}
    create_atoms 2 single 1.8 ${y} ${z}
    create_atoms 2 single 1.8 2.5 ${z}
    create_atoms 2 single 1.8 2.5 3.5
Created 1 atoms
  using lattice units in orthogonal box = (0 0 0) to (92.831777 92.831777 92.831777)
  create_atoms CPU = 0.000 seconds
    variable x0 equal ${x}
    variable x0 equal 1.8
    variable step equal ${step} + 1
    variable step equal 4 + 1
jump SELF loop_bead
if "${step} > ${N}" then "jump SELF end_inner"
    variable x equal ${x0} + ${dbead}
    variable x equal 1.8 + ${dbead}
    variable x equal 1.8 + 0.2
    variable y equal ${y0} + 1.5*${Ny}
    variable y equal 1 + 1.5*${Ny}
    variable y equal 1 + 1.5*1
    variable z equal ${z0} + 1.5*${Nz}
    variable z equal 2 + 1.5*${Nz}
    variable z equal 2 + 1.5*1
    create_atoms 2 single ${x} ${y} ${z}
    create_atoms 2 single 2 ${y} ${z}
    create_atoms 2 single 2 2.5 ${z}
    create_atoms 2 single 2 2.5 3.5
Created 1 atoms
  using lattice units in orthogonal box = (0 0 0) to (92.831777 92.831777 92.831777)
  create_atoms CPU = 0.000 seconds
    variable x0 equal ${x}
    variable x0 equal 2
    variable step equal ${step} + 1
    variable step equal 5 + 1
jump SELF loop_bead
if "${step} > ${N}" then "jump SELF end_inner"
    variable x equal ${x0} + ${dbead}
    variable x equal 2 + ${dbead}
    variable x equal 2 + 0.2
    variable y equal ${y0} + 1.5*${Ny}
    variable y equal 1 + 1.5*${Ny}
    variable y equal 1 + 1.5*1
    variable z equal ${z0} + 1.5*${Nz}
    variable z equal 2 + 1.5*${Nz}
    variable z equal 2 + 1.5*1
    create_atoms 2 single ${x} ${y} ${z}
    create_atoms 2 single 2.2 ${y} ${z}
    create_atoms 2 single 2.2 2.5 ${z}
    create_atoms 2 single 2.2 2.5 3.5
Created 1 atoms
  using lattice units in orthogonal box = (0 0 0) to (92.831777 92.831777 92.831777)
  create_atoms CPU = 0.000 seconds
    variable x0 equal ${x}
    variable x0 equal 2.2
    variable step equal ${step} + 1
    variable step equal 6 + 1
jump SELF loop_bead
if "${step} > ${N}" then "jump SELF end_inner"
    variable x equal ${x0} + ${dbead}
    variable x equal 2.2 + ${dbead}
    variable x equal 2.2 + 0.2
    variable y equal ${y0} + 1.5*${Ny}
    variable y equal 1 + 1.5*${Ny}
    variable y equal 1 + 1.5*1
    variable z equal ${z0} + 1.5*${Nz}
    variable z equal 2 + 1.5*${Nz}
    variable z equal 2 + 1.5*1
    create_atoms 2 single ${x} ${y} ${z}
    create_atoms 2 single 2.4 ${y} ${z}
    create_atoms 2 single 2.4 2.5 ${z}
    create_atoms 2 single 2.4 2.5 3.5
Created 1 atoms
  using lattice units in orthogonal box = (0 0 0) to (92.831777 92.831777 92.831777)
  create_atoms CPU = 0.000 seconds
    variable x0 equal ${x}
    variable x0 equal 2.4
    variable step equal ${step} + 1
    variable step equal 7 + 1
jump SELF loop_bead
if "${step} > ${N}" then "jump SELF end_inner"
    variable x equal ${x0} + ${dbead}
    variable x equal 2.4 + ${dbead}
    variable x equal 2.4 + 0.2
    variable y equal ${y0} + 1.5*${Ny}
    variable y equal 1 + 1.5*${Ny}
    variable y equal 1 + 1.5*1
    variable z equal ${z0} + 1.5*${Nz}
    variable z equal 2 + 1.5*${Nz}
    variable z equal 2 + 1.5*1
    create_atoms 2 single ${x} ${y} ${z}
    create_atoms 2 single 2.6 ${y} ${z}
    create_atoms 2 single 2.6 2.5 ${z}
    create_atoms 2 single 2.6 2.5 3.5
Created 1 atoms
  using lattice units in orthogonal box = (0 0 0) to (92.831777 92.831777 92.831777)
  create_atoms CPU = 0.000 seconds
    variable x0 equal ${x}
    variable x0 equal 2.6
    variable step equal ${step} + 1
    variable step equal 8 + 1
jump SELF loop_bead
if "${step} > ${N}" then "jump SELF end_inner"
    variable x equal ${x0} + ${dbead}
    variable x equal 2.6 + ${dbead}
    variable x equal 2.6 + 0.2
    variable y equal ${y0} + 1.5*${Ny}
    variable y equal 1 + 1.5*${Ny}
    variable y equal 1 + 1.5*1
    variable z equal ${z0} + 1.5*${Nz}
    variable z equal 2 + 1.5*${Nz}
    variable z equal 2 + 1.5*1
    create_atoms 2 single ${x} ${y} ${z}
    create_atoms 2 single 2.8 ${y} ${z}
    create_atoms 2 single 2.8 2.5 ${z}
    create_atoms 2 single 2.8 2.5 3.5
Created 1 atoms
  using lattice units in orthogonal box = (0 0 0) to (92.831777 92.831777 92.831777)
  create_atoms CPU = 0.000 seconds
    variable x0 equal ${x}
    variable x0 equal 2.8
    variable step equal ${step} + 1
    variable step equal 9 + 1
jump SELF loop_bead
if "${step} > ${N}" then "jump SELF end_inner"
    variable x equal ${x0} + ${dbead}
    variable x equal 2.8 + ${dbead}
    variable x equal 2.8 + 0.2
    variable y equal ${y0} + 1.5*${Ny}
    variable y equal 1 + 1.5*${Ny}
    variable y equal 1 + 1.5*1
    variable z equal ${z0} + 1.5*${Nz}
    variable z equal 2 + 1.5*${Nz}
    variable z equal 2 + 1.5*1
    create_atoms 2 single ${x} ${y} ${z}
    create_atoms 2 single 3 ${y} ${z}
    create_atoms 2 single 3 2.5 ${z}
    create_atoms 2 single 3 2.5 3.5
Created 1 atoms
  using lattice units in orthogonal box = (0 0 0) to (92.831777 92.831777 92.831777)
  create_atoms CPU = 0.000 seconds
    variable x0 equal ${x}
    variable x0 equal 3
    variable step equal ${step} + 1
    variable step equal 10 + 1
jump SELF loop_bead
if "${step} > ${N}" then "jump SELF end_inner"
    variable x equal ${x0} + ${dbead}
    variable x equal 3 + ${dbead}
    variable x equal 3 + 0.2
    variable y equal ${y0} + 1.5*${Ny}
    variable y equal 1 + 1.5*${Ny}
    variable y equal 1 + 1.5*1
    variable z equal ${z0} + 1.5*${Nz}
    variable z equal 2 + 1.5*${Nz}
    variable z equal 2 + 1.5*1
    create_atoms 2 single ${x} ${y} ${z}
    create_atoms 2 single 3.2 ${y} ${z}
    create_atoms 2 single 3.2 2.5 ${z}
    create_atoms 2 single 3.2 2.5 3.5
Created 1 atoms
  using lattice units in orthogonal box = (0 0 0) to (92.831777 92.831777 92.831777)
  create_atoms CPU = 0.000 seconds
    variable x0 equal ${x}
    variable x0 equal 3.2
    variable step equal ${step} + 1
    variable step equal 11 + 1
jump SELF loop_bead
if "${step} > ${N}" then "jump SELF end_inner"
    variable x equal ${x0} + ${dbead}
    variable x equal 3.2 + ${dbead}
    variable x equal 3.2 + 0.2
    variable y equal ${y0} + 1.5*${Ny}
    variable y equal 1 + 1.5*${Ny}
    variable y equal 1 + 1.5*1
    variable z equal ${z0} + 1.5*${Nz}
    variable z equal 2 + 1.5*${Nz}
    variable z equal 2 + 1.5*1
    create_atoms 2 single ${x} ${y} ${z}
    create_atoms 2 single 3.4 ${y} ${z}
    create_atoms 2 single 3.4 2.5 ${z}
    create_atoms 2 single 3.4 2.5 3.5
Created 1 atoms
  using lattice units in orthogonal box = (0 0 0) to (92.831777 92.831777 92.831777)
  create_atoms CPU = 0.000 seconds
    variable x0 equal ${x}
    variable x0 equal 3.4
    variable step equal ${step} + 1
    variable step equal 12 + 1
jump SELF loop_bead
if "${step} > ${N}" then "jump SELF end_inner"
    variable x equal ${x0} + ${dbead}
    variable x equal 3.4 + ${dbead}
    variable x equal 3.4 + 0.2
    variable y equal ${y0} + 1.5*${Ny}
    variable y equal 1 + 1.5*${Ny}
    variable y equal 1 + 1.5*1
    variable z equal ${z0} + 1.5*${Nz}
    variable z equal 2 + 1.5*${Nz}
    variable z equal 2 + 1.5*1
    create_atoms 2 single ${x} ${y} ${z}
    create_atoms 2 single 3.6 ${y} ${z}
    create_atoms 2 single 3.6 2.5 ${z}
    create_atoms 2 single 3.6 2.5 3.5
Created 1 atoms
  using lattice units in orthogonal box = (0 0 0) to (92.831777 92.831777 92.831777)
  create_atoms CPU = 0.000 seconds
    variable x0 equal ${x}
    variable x0 equal 3.6
    variable step equal ${step} + 1
    variable step equal 13 + 1
jump SELF loop_bead
if "${step} > ${N}" then "jump SELF end_inner"
    variable x equal ${x0} + ${dbead}
    variable x equal 3.6 + ${dbead}
    variable x equal 3.6 + 0.2
    variable y equal ${y0} + 1.5*${Ny}
    variable y equal 1 + 1.5*${Ny}
    variable y equal 1 + 1.5*1
    variable z equal ${z0} + 1.5*${Nz}
    variable z equal 2 + 1.5*${Nz}
    variable z equal 2 + 1.5*1
    create_atoms 2 single ${x} ${y} ${z}
    create_atoms 2 single 3.8 ${y} ${z}
    create_atoms 2 single 3.8 2.5 ${z}
    create_atoms 2 single 3.8 2.5 3.5
Created 1 atoms
  using lattice units in orthogonal box = (0 0 0) to (92.831777 92.831777 92.831777)
  create_atoms CPU = 0.000 seconds
    variable x0 equal ${x}
    variable x0 equal 3.8
    variable step equal ${step} + 1
    variable step equal 14 + 1
jump SELF loop_bead
if "${step} > ${N}" then "jump SELF end_inner"
    variable x equal ${x0} + ${dbead}
    variable x equal 3.8 + ${dbead}
    variable x equal 3.8 + 0.2
    variable y equal ${y0} + 1.5*${Ny}
    variable y equal 1 + 1.5*${Ny}
    variable y equal 1 + 1.5*1
    variable z equal ${z0} + 1.5*${Nz}
    variable z equal 2 + 1.5*${Nz}
    variable z equal 2 + 1.5*1
    create_atoms 2 single ${x} ${y} ${z}
    create_atoms 2 single 4 ${y} ${z}
    create_atoms 2 single 4 2.5 ${z}
    create_atoms 2 single 4 2.5 3.5
Created 1 atoms
  using lattice units in orthogonal box = (0 0 0) to (92.831777 92.831777 92.831777)
  create_atoms CPU = 0.000 seconds
    variable x0 equal ${x}
    variable x0 equal 4
    variable step equal ${step} + 1
    variable step equal 15 + 1
jump SELF loop_bead
if "${step} > ${N}" then "jump SELF end_inner"
    variable x equal ${x0} + ${dbead}
    variable x equal 4 + ${dbead}
    variable x equal 4 + 0.2
    variable y equal ${y0} + 1.5*${Ny}
    variable y equal 1 + 1.5*${Ny}
    variable y equal 1 + 1.5*1
    variable z equal ${z0} + 1.5*${Nz}
    variable z equal 2 + 1.5*${Nz}
    variable z equal 2 + 1.5*1
    create_atoms 2 single ${x} ${y} ${z}
    create_atoms 2 single 4.2 ${y} ${z}
    create_atoms 2 single 4.2 2.5 ${z}
    create_atoms 2 single 4.2 2.5 3.5
Created 1 atoms
  using lattice units in orthogonal box = (0 0 0) to (92.831777 92.831777 92.831777)
  create_atoms CPU = 0.000 seconds
    variable x0 equal ${x}
    variable x0 equal 4.2
    variable step equal ${step} + 1
    variable step equal 16 + 1
jump SELF loop_bead
if "${step} > ${N}" then "jump SELF end_inner"
    variable x equal ${x0} + ${dbead}
    variable x equal 4.2 + ${dbead}
    variable x equal 4.2 + 0.2
    variable y equal ${y0} + 1.5*${Ny}
    variable y equal 1 + 1.5*${Ny}
    variable y equal 1 + 1.5*1
    variable z equal ${z0} + 1.5*${Nz}
    variable z equal 2 + 1.5*${Nz}
    variable z equal 2 + 1.5*1
    create_atoms 2 single ${x} ${y} ${z}
    create_atoms 2 single 4.4 ${y} ${z}
    create_atoms 2 single 4.4 2.5 ${z}
    create_atoms 2 single 4.4 2.5 3.5
Created 1 atoms
  using lattice units in orthogonal box = (0 0 0) to (92.831777 92.831777 92.831777)
  create_atoms CPU = 0.000 seconds
    variable x0 equal ${x}
    variable x0 equal 4.4
    variable step equal ${step} + 1
    variable step equal 17 + 1
jump SELF loop_bead
if "${step} > ${N}" then "jump SELF end_inner"
    variable x equal ${x0} + ${dbead}
    variable x equal 4.4 + ${dbead}
    variable x equal 4.4 + 0.2
    variable y equal ${y0} + 1.5*${Ny}
    variable y equal 1 + 1.5*${Ny}
    variable y equal 1 + 1.5*1
    variable z equal ${z0} + 1.5*${Nz}
    variable z equal 2 + 1.5*${Nz}
    variable z equal 2 + 1.5*1
    create_atoms 2 single ${x} ${y} ${z}
    create_atoms 2 single 4.6 ${y} ${z}
    create_atoms 2 single 4.6 2.5 ${z}
    create_atoms 2 single 4.6 2.5 3.5
Created 1 atoms
  using lattice units in orthogonal box = (0 0 0) to (92.831777 92.831777 92.831777)
  create_atoms CPU = 0.000 seconds
    variable x0 equal ${x}
    variable x0 equal 4.6
    variable step equal ${step} + 1
    variable step equal 18 + 1
jump SELF loop_bead
if "${step} > ${N}" then "jump SELF end_inner"
    variable x equal ${x0} + ${dbead}
    variable x equal 4.6 + ${dbead}
    variable x equal 4.6 + 0.2
    variable y equal ${y0} + 1.5*${Ny}
    variable y equal 1 + 1.5*${Ny}
    variable y equal 1 + 1.5*1
    variable z equal ${z0} + 1.5*${Nz}
    variable z equal 2 + 1.5*${Nz}
    variable z equal 2 + 1.5*1
    create_atoms 2 single ${x} ${y} ${z}
    create_atoms 2 single 4.8 ${y} ${z}
    create_atoms 2 single 4.8 2.5 ${z}
    create_atoms 2 single 4.8 2.5 3.5
Created 1 atoms
  using lattice units in orthogonal box = (0 0 0) to (92.831777 92.831777 92.831777)
  create_atoms CPU = 0.000 seconds
    variable x0 equal ${x}
    variable x0 equal 4.8
    variable step equal ${step} + 1
    variable step equal 19 + 1
jump SELF loop_bead
if "${step} > ${N}" then "jump SELF end_inner"
    variable x equal ${x0} + ${dbead}
    variable x equal 4.8 + ${dbead}
    variable x equal 4.8 + 0.2
    variable y equal ${y0} + 1.5*${Ny}
    variable y equal 1 + 1.5*${Ny}
    variable y equal 1 + 1.5*1
    variable z equal ${z0} + 1.5*${Nz}
    variable z equal 2 + 1.5*${Nz}
    variable z equal 2 + 1.5*1
    create_atoms 2 single ${x} ${y} ${z}
    create_atoms 2 single 5 ${y} ${z}
    create_atoms 2 single 5 2.5 ${z}
    create_atoms 2 single 5 2.5 3.5
Created 1 atoms
  using lattice units in orthogonal box = (0 0 0) to (92.831777 92.831777 92.831777)
  create_atoms CPU = 0.000 seconds
    variable x0 equal ${x}
    variable x0 equal 5
    variable step equal ${step} + 1
    variable step equal 20 + 1
jump SELF loop_bead
if "${step} > ${N}" then "jump SELF end_inner"
    variable x equal ${x0} + ${dbead}
    variable x equal 5 + ${dbead}
    variable x equal 5 + 0.2
    variable y equal ${y0} + 1.5*${Ny}
    variable y equal 1 + 1.5*${Ny}
    variable y equal 1 + 1.5*1
    variable z equal ${z0} + 1.5*${Nz}
    variable z equal 2 + 1.5*${Nz}
    variable z equal 2 + 1.5*1
    create_atoms 2 single ${x} ${y} ${z}
    create_atoms 2 single 5.2 ${y} ${z}
    create_atoms 2 single 5.2 2.5 ${z}
    create_atoms 2 single 5.2 2.5 3.5
Created 1 atoms
  using lattice units in orthogonal box = (0 0 0) to (92.831777 92.831777 92.831777)
  create_atoms CPU = 0.000 seconds
    variable x0 equal ${x}
    variable x0 equal 5.2
    variable step equal ${step} + 1
    variable step equal 21 + 1
jump SELF loop_bead
if "${step} > ${N}" then "jump SELF end_inner"
    variable x equal ${x0} + ${dbead}
    variable x equal 5.2 + ${dbead}
    variable x equal 5.2 + 0.2
    variable y equal ${y0} + 1.5*${Ny}
    variable y equal 1 + 1.5*${Ny}
    variable y equal 1 + 1.5*1
    variable z equal ${z0} + 1.5*${Nz}
    variable z equal 2 + 1.5*${Nz}
    variable z equal 2 + 1.5*1
    create_atoms 2 single ${x} ${y} ${z}
    create_atoms 2 single 5.4 ${y} ${z}
    create_atoms 2 single 5.4 2.5 ${z}
    create_atoms 2 single 5.4 2.5 3.5
Created 1 atoms
  using lattice units in orthogonal box = (0 0 0) to (92.831777 92.831777 92.831777)
  create_atoms CPU = 0.000 seconds
    variable x0 equal ${x}
    variable x0 equal 5.4
    variable step equal ${step} + 1
    variable step equal 22 + 1
jump SELF loop_bead
if "${step} > ${N}" then "jump SELF end_inner"
    variable x equal ${x0} + ${dbead}
    variable x equal 5.4 + ${dbead}
    variable x equal 5.4 + 0.2
    variable y equal ${y0} + 1.5*${Ny}
    variable y equal 1 + 1.5*${Ny}
    variable y equal 1 + 1.5*1
    variable z equal ${z0} + 1.5*${Nz}
    variable z equal 2 + 1.5*${Nz}
    variable z equal 2 + 1.5*1
    create_atoms 2 single ${x} ${y} ${z}
    create_atoms 2 single 5.6 ${y} ${z}
    create_atoms 2 single 5.6 2.5 ${z}
    create_atoms 2 single 5.6 2.5 3.5
Created 1 atoms
  using lattice units in orthogonal box = (0 0 0) to (92.831777 92.831777 92.831777)
  create_atoms CPU = 0.000 seconds
    variable x0 equal ${x}
    variable x0 equal 5.6
    variable step equal ${step} + 1
    variable step equal 23 + 1
jump SELF loop_bead
if "${step} > ${N}" then "jump SELF end_inner"
    variable x equal ${x0} + ${dbead}
    variable x equal 5.6 + ${dbead}
    variable x equal 5.6 + 0.2
    variable y equal ${y0} + 1.5*${Ny}
    variable y equal 1 + 1.5*${Ny}
    variable y equal 1 + 1.5*1
    variable z equal ${z0} + 1.5*${Nz}
    variable z equal 2 + 1.5*${Nz}
    variable z equal 2 + 1.5*1
    create_atoms 2 single ${x} ${y} ${z}
    create_atoms 2 single 5.8 ${y} ${z}
    create_atoms 2 single 5.8 2.5 ${z}
    create_atoms 2 single 5.8 2.5 3.5
Created 1 atoms
  using lattice units in orthogonal box = (0 0 0) to (92.831777 92.831777 92.831777)
  create_atoms CPU = 0.000 seconds
    variable x0 equal ${x}
    variable x0 equal 5.8
    variable step equal ${step} + 1
    variable step equal 24 + 1
jump SELF loop_bead
if "${step} > ${N}" then "jump SELF end_inner"
    variable x equal ${x0} + ${dbead}
    variable x equal 5.8 + ${dbead}
    variable x equal 5.8 + 0.2
    variable y equal ${y0} + 1.5*${Ny}
    variable y equal 1 + 1.5*${Ny}
    variable y equal 1 + 1.5*1
    variable z equal ${z0} + 1.5*${Nz}
    variable z equal 2 + 1.5*${Nz}
    variable z equal 2 + 1.5*1
    create_atoms 2 single ${x} ${y} ${z}
    create_atoms 2 single 6 ${y} ${z}
    create_atoms 2 single 6 2.5 ${z}
    create_atoms 2 single 6 2.5 3.5
Created 1 atoms
  using lattice units in orthogonal box = (0 0 0) to (92.831777 92.831777 92.831777)
  create_atoms CPU = 0.000 seconds
    variable x0 equal ${x}
    variable x0 equal 6
    variable step equal ${step} + 1
    variable step equal 25 + 1
jump SELF loop_bead
if "${step} > ${N}" then "jump SELF end_inner"
    variable x equal ${x0} + ${dbead}
    variable x equal 6 + ${dbead}
    variable x equal 6 + 0.2
    variable y equal ${y0} + 1.5*${Ny}
    variable y equal 1 + 1.5*${Ny}
    variable y equal 1 + 1.5*1
    variable z equal ${z0} + 1.5*${Nz}
    variable z equal 2 + 1.5*${Nz}
    variable z equal 2 + 1.5*1
    create_atoms 2 single ${x} ${y} ${z}
    create_atoms 2 single 6.2 ${y} ${z}
    create_atoms 2 single 6.2 2.5 ${z}
    create_atoms 2 single 6.2 2.5 3.5
Created 1 atoms
  using lattice units in orthogonal box = (0 0 0) to (92.831777 92.831777 92.831777)
  create_atoms CPU = 0.000 seconds
    variable x0 equal ${x}
    variable x0 equal 6.2
    variable step equal ${step} + 1
    variable step equal 26 + 1
jump SELF loop_bead
if "${step} > ${N}" then "jump SELF end_inner"
    variable x equal ${x0} + ${dbead}
    variable x equal 6.2 + ${dbead}
    variable x equal 6.2 + 0.2
    variable y equal ${y0} + 1.5*${Ny}
    variable y equal 1 + 1.5*${Ny}
    variable y equal 1 + 1.5*1
    variable z equal ${z0} + 1.5*${Nz}
    variable z equal 2 + 1.5*${Nz}
    variable z equal 2 + 1.5*1
    create_atoms 2 single ${x} ${y} ${z}
    create_atoms 2 single 6.4 ${y} ${z}
    create_atoms 2 single 6.4 2.5 ${z}
    create_atoms 2 single 6.4 2.5 3.5
Created 1 atoms
  using lattice units in orthogonal box = (0 0 0) to (92.831777 92.831777 92.831777)
  create_atoms CPU = 0.000 seconds
    variable x0 equal ${x}
    variable x0 equal 6.4
    variable step equal ${step} + 1
    variable step equal 27 + 1
jump SELF loop_bead
if "${step} > ${N}" then "jump SELF end_inner"
    variable x equal ${x0} + ${dbead}
    variable x equal 6.4 + ${dbead}
    variable x equal 6.4 + 0.2
    variable y equal ${y0} + 1.5*${Ny}
    variable y equal 1 + 1.5*${Ny}
    variable y equal 1 + 1.5*1
    variable z equal ${z0} + 1.5*${Nz}
    variable z equal 2 + 1.5*${Nz}
    variable z equal 2 + 1.5*1
    create_atoms 2 single ${x} ${y} ${z}
    create_atoms 2 single 6.6 ${y} ${z}
    create_atoms 2 single 6.6 2.5 ${z}
    create_atoms 2 single 6.6 2.5 3.5
Created 1 atoms
  using lattice units in orthogonal box = (0 0 0) to (92.831777 92.831777 92.831777)
  create_atoms CPU = 0.000 seconds
    variable x0 equal ${x}
    variable x0 equal 6.6
    variable step equal ${step} + 1
    variable step equal 28 + 1
jump SELF loop_bead
if "${step} > ${N}" then "jump SELF end_inner"
    variable x equal ${x0} + ${dbead}
    variable x equal 6.6 + ${dbead}
    variable x equal 6.6 + 0.2
    variable y equal ${y0} + 1.5*${Ny}
    variable y equal 1 + 1.5*${Ny}
    variable y equal 1 + 1.5*1
    variable z equal ${z0} + 1.5*${Nz}
    variable z equal 2 + 1.5*${Nz}
    variable z equal 2 + 1.5*1
    create_atoms 2 single ${x} ${y} ${z}
    create_atoms 2 single 6.8 ${y} ${z}
    create_atoms 2 single 6.8 2.5 ${z}
    create_atoms 2 single 6.8 2.5 3.5
Created 1 atoms
  using lattice units in orthogonal box = (0 0 0) to (92.831777 92.831777 92.831777)
  create_atoms CPU = 0.000 seconds
    variable x0 equal ${x}
    variable x0 equal 6.8
    variable step equal ${step} + 1
    variable step equal 29 + 1
jump SELF loop_bead
if "${step} > ${N}" then "jump SELF end_inner"
    variable x equal ${x0} + ${dbead}
    variable x equal 6.8 + ${dbead}
    variable x equal 6.8 + 0.2
    variable y equal ${y0} + 1.5*${Ny}
    variable y equal 1 + 1.5*${Ny}
    variable y equal 1 + 1.5*1
    variable z equal ${z0} + 1.5*${Nz}
    variable z equal 2 + 1.5*${Nz}
    variable z equal 2 + 1.5*1
    create_atoms 2 single ${x} ${y} ${z}
    create_atoms 2 single 7 ${y} ${z}
    create_atoms 2 single 7 2.5 ${z}
    create_atoms 2 single 7 2.5 3.5
Created 1 atoms
  using lattice units in orthogonal box = (0 0 0) to (92.831777 92.831777 92.831777)
  create_atoms CPU = 0.000 seconds
    variable x0 equal ${x}
    variable x0 equal 7
    variable step equal ${step} + 1
    variable step equal 30 + 1
jump SELF loop_bead
if "${step} > ${N}" then "jump SELF end_inner"
jump SELF end_inner
variable x0 equal 1.0
variable y0 equal 1.0
variable step equal 1
next Ny
jump SELF loop_y
label loop_bead
if "${step} > ${N}" then "jump SELF end_inner"
    variable x equal ${x0} + ${dbead}
    variable x equal 1 + ${dbead}
    variable x equal 1 + 0.2
    variable y equal ${y0} + 1.5*${Ny}
    variable y equal 1 + 1.5*${Ny}
    variable y equal 1 + 1.5*2
    variable z equal ${z0} + 1.5*${Nz}
    variable z equal 2 + 1.5*${Nz}
    variable z equal 2 + 1.5*1
    create_atoms 2 single ${x} ${y} ${z}
    create_atoms 2 single 1.2 ${y} ${z}
    create_atoms 2 single 1.2 4 ${z}
    create_atoms 2 single 1.2 4 3.5
Created 1 atoms
  using lattice units in orthogonal box = (0 0 0) to (92.831777 92.831777 92.831777)
  create_atoms CPU = 0.000 seconds
    variable x0 equal ${x}
    variable x0 equal 1.2
    variable step equal ${step} + 1
    variable step equal 1 + 1
jump SELF loop_bead
if "${step} > ${N}" then "jump SELF end_inner"
    variable x equal ${x0} + ${dbead}
    variable x equal 1.2 + ${dbead}
    variable x equal 1.2 + 0.2
    variable y equal ${y0} + 1.5*${Ny}
    variable y equal 1 + 1.5*${Ny}
    variable y equal 1 + 1.5*2
    variable z equal ${z0} + 1.5*${Nz}
    variable z equal 2 + 1.5*${Nz}
    variable z equal 2 + 1.5*1
    create_atoms 2 single ${x} ${y} ${z}
    create_atoms 2 single 1.4 ${y} ${z}
    create_atoms 2 single 1.4 4 ${z}
    create_atoms 2 single 1.4 4 3.5
Created 1 atoms
  using lattice units in orthogonal box = (0 0 0) to (92.831777 92.831777 92.831777)
  create_atoms CPU = 0.000 seconds
    variable x0 equal ${x}
    variable x0 equal 1.4
    variable step equal ${step} + 1
    variable step equal 2 + 1
jump SELF loop_bead
if "${step} > ${N}" then "jump SELF end_inner"
    variable x equal ${x0} + ${dbead}
    variable x equal 1.4 + ${dbead}
    variable x equal 1.4 + 0.2
    variable y equal ${y0} + 1.5*${Ny}
    variable y equal 1 + 1.5*${Ny}
    variable y equal 1 + 1.5*2
    variable z equal ${z0} + 1.5*${Nz}
    variable z equal 2 + 1.5*${Nz}
    variable z equal 2 + 1.5*1
    create_atoms 2 single ${x} ${y} ${z}
    create_atoms 2 single 1.6 ${y} ${z}
    create_atoms 2 single 1.6 4 ${z}
    create_atoms 2 single 1.6 4 3.5
Created 1 atoms
  using lattice units in orthogonal box = (0 0 0) to (92.831777 92.831777 92.831777)
  create_atoms CPU = 0.000 seconds
    variable x0 equal ${x}
    variable x0 equal 1.6
    variable step equal ${step} + 1
    variable step equal 3 + 1
jump SELF loop_bead
if "${step} > ${N}" then "jump SELF end_inner"
    variable x equal ${x0} + ${dbead}
    variable x equal 1.6 + ${dbead}
    variable x equal 1.6 + 0.2
    variable y equal ${y0} + 1.5*${Ny}
    variable y equal 1 + 1.5*${Ny}
    variable y equal 1 + 1.5*2
    variable z equal ${z0} + 1.5*${Nz}
    variable z equal 2 + 1.5*${Nz}
    variable z equal 2 + 1.5*1
    create_atoms 2 single ${x} ${y} ${z}
    create_atoms 2 single 1.8 ${y} ${z}
    create_atoms 2 single 1.8 4 ${z}
    create_atoms 2 single 1.8 4 3.5
Created 1 atoms
  using lattice units in orthogonal box = (0 0 0) to (92.831777 92.831777 92.831777)
  create_atoms CPU = 0.000 seconds
    variable x0 equal ${x}
    variable x0 equal 1.8
    variable step equal ${step} + 1
    variable step equal 4 + 1
jump SELF loop_bead
if "${step} > ${N}" then "jump SELF end_inner"
    variable x equal ${x0} + ${dbead}
    variable x equal 1.8 + ${dbead}
    variable x equal 1.8 + 0.2
    variable y equal ${y0} + 1.5*${Ny}
    variable y equal 1 + 1.5*${Ny}
    variable y equal 1 + 1.5*2
    variable z equal ${z0} + 1.5*${Nz}
    variable z equal 2 + 1.5*${Nz}
    variable z equal 2 + 1.5*1
    create_atoms 2 single ${x} ${y} ${z}
    create_atoms 2 single 2 ${y} ${z}
    create_atoms 2 single 2 4 ${z}
    create_atoms 2 single 2 4 3.5
Created 1 atoms
  using lattice units in orthogonal box = (0 0 0) to (92.831777 92.831777 92.831777)
  create_atoms CPU = 0.000 seconds
    variable x0 equal ${x}
    variable x0 equal 2
    variable step equal ${step} + 1
    variable step equal 5 + 1
jump SELF loop_bead
if "${step} > ${N}" then "jump SELF end_inner"
    variable x equal ${x0} + ${dbead}
    variable x equal 2 + ${dbead}
    variable x equal 2 + 0.2
    variable y equal ${y0} + 1.5*${Ny}
    variable y equal 1 + 1.5*${Ny}
    variable y equal 1 + 1.5*2
    variable z equal ${z0} + 1.5*${Nz}
    variable z equal 2 + 1.5*${Nz}
    variable z equal 2 + 1.5*1
    create_atoms 2 single ${x} ${y} ${z}
    create_atoms 2 single 2.2 ${y} ${z}
    create_atoms 2 single 2.2 4 ${z}
    create_atoms 2 single 2.2 4 3.5
Created 1 atoms
  using lattice units in orthogonal box = (0 0 0) to (92.831777 92.831777 92.831777)
  create_atoms CPU = 0.000 seconds
    variable x0 equal ${x}
    variable x0 equal 2.2
    variable step equal ${step} + 1
    variable step equal 6 + 1
jump SELF loop_bead
if "${step} > ${N}" then "jump SELF end_inner"
    variable x equal ${x0} + ${dbead}
    variable x equal 2.2 + ${dbead}
    variable x equal 2.2 + 0.2
    variable y equal ${y0} + 1.5*${Ny}
    variable y equal 1 + 1.5*${Ny}
    variable y equal 1 + 1.5*2
    variable z equal ${z0} + 1.5*${Nz}
    variable z equal 2 + 1.5*${Nz}
    variable z equal 2 + 1.5*1
    create_atoms 2 single ${x} ${y} ${z}
    create_atoms 2 single 2.4 ${y} ${z}
    create_atoms 2 single 2.4 4 ${z}
    create_atoms 2 single 2.4 4 3.5
Created 1 atoms
  using lattice units in orthogonal box = (0 0 0) to (92.831777 92.831777 92.831777)
  create_atoms CPU = 0.000 seconds
    variable x0 equal ${x}
    variable x0 equal 2.4
    variable step equal ${step} + 1
    variable step equal 7 + 1
jump SELF loop_bead
if "${step} > ${N}" then "jump SELF end_inner"
    variable x equal ${x0} + ${dbead}
    variable x equal 2.4 + ${dbead}
    variable x equal 2.4 + 0.2
    variable y equal ${y0} + 1.5*${Ny}
    variable y equal 1 + 1.5*${Ny}
    variable y equal 1 + 1.5*2
    variable z equal ${z0} + 1.5*${Nz}
    variable z equal 2 + 1.5*${Nz}
    variable z equal 2 + 1.5*1
    create_atoms 2 single ${x} ${y} ${z}
    create_atoms 2 single 2.6 ${y} ${z}
    create_atoms 2 single 2.6 4 ${z}
    create_atoms 2 single 2.6 4 3.5
Created 1 atoms
  using lattice units in orthogonal box = (0 0 0) to (92.831777 92.831777 92.831777)
  create_atoms CPU = 0.000 seconds
    variable x0 equal ${x}
    variable x0 equal 2.6
    variable step equal ${step} + 1
    variable step equal 8 + 1
jump SELF loop_bead
if "${step} > ${N}" then "jump SELF end_inner"
    variable x equal ${x0} + ${dbead}
    variable x equal 2.6 + ${dbead}
    variable x equal 2.6 + 0.2
    variable y equal ${y0} + 1.5*${Ny}
    variable y equal 1 + 1.5*${Ny}
    variable y equal 1 + 1.5*2
    variable z equal ${z0} + 1.5*${Nz}
    variable z equal 2 + 1.5*${Nz}
    variable z equal 2 + 1.5*1
    create_atoms 2 single ${x} ${y} ${z}
    create_atoms 2 single 2.8 ${y} ${z}
    create_atoms 2 single 2.8 4 ${z}
    create_atoms 2 single 2.8 4 3.5
Created 1 atoms
  using lattice units in orthogonal box = (0 0 0) to (92.831777 92.831777 92.831777)
  create_atoms CPU = 0.000 seconds
    variable x0 equal ${x}
    variable x0 equal 2.8
    variable step equal ${step} + 1
    variable step equal 9 + 1
jump SELF loop_bead
if "${step} > ${N}" then "jump SELF end_inner"
    variable x equal ${x0} + ${dbead}
    variable x equal 2.8 + ${dbead}
    variable x equal 2.8 + 0.2
    variable y equal ${y0} + 1.5*${Ny}
    variable y equal 1 + 1.5*${Ny}
    variable y equal 1 + 1.5*2
    variable z equal ${z0} + 1.5*${Nz}
    variable z equal 2 + 1.5*${Nz}
    variable z equal 2 + 1.5*1
    create_atoms 2 single ${x} ${y} ${z}
    create_atoms 2 single 3 ${y} ${z}
    create_atoms 2 single 3 4 ${z}
    create_atoms 2 single 3 4 3.5
Created 1 atoms
  using lattice units in orthogonal box = (0 0 0) to (92.831777 92.831777 92.831777)
  create_atoms CPU = 0.000 seconds
    variable x0 equal ${x}
    variable x0 equal 3
    variable step equal ${step} + 1
    variable step equal 10 + 1
jump SELF loop_bead
if "${step} > ${N}" then "jump SELF end_inner"
    variable x equal ${x0} + ${dbead}
    variable x equal 3 + ${dbead}
    variable x equal 3 + 0.2
    variable y equal ${y0} + 1.5*${Ny}
    variable y equal 1 + 1.5*${Ny}
    variable y equal 1 + 1.5*2
    variable z equal ${z0} + 1.5*${Nz}
    variable z equal 2 + 1.5*${Nz}
    variable z equal 2 + 1.5*1
    create_atoms 2 single ${x} ${y} ${z}
    create_atoms 2 single 3.2 ${y} ${z}
    create_atoms 2 single 3.2 4 ${z}
    create_atoms 2 single 3.2 4 3.5
Created 1 atoms
  using lattice units in orthogonal box = (0 0 0) to (92.831777 92.831777 92.831777)
  create_atoms CPU = 0.000 seconds
    variable x0 equal ${x}
    variable x0 equal 3.2
    variable step equal ${step} + 1
    variable step equal 11 + 1
jump SELF loop_bead
if "${step} > ${N}" then "jump SELF end_inner"
    variable x equal ${x0} + ${dbead}
    variable x equal 3.2 + ${dbead}
    variable x equal 3.2 + 0.2
    variable y equal ${y0} + 1.5*${Ny}
    variable y equal 1 + 1.5*${Ny}
    variable y equal 1 + 1.5*2
    variable z equal ${z0} + 1.5*${Nz}
    variable z equal 2 + 1.5*${Nz}
    variable z equal 2 + 1.5*1
    create_atoms 2 single ${x} ${y} ${z}
    create_atoms 2 single 3.4 ${y} ${z}
    create_atoms 2 single 3.4 4 ${z}
    create_atoms 2 single 3.4 4 3.5
Created 1 atoms
  using lattice units in orthogonal box = (0 0 0) to (92.831777 92.831777 92.831777)
  create_atoms CPU = 0.000 seconds
    variable x0 equal ${x}
    variable x0 equal 3.4
    variable step equal ${step} + 1
    variable step equal 12 + 1
jump SELF loop_bead
if "${step} > ${N}" then "jump SELF end_inner"
    variable x equal ${x0} + ${dbead}
    variable x equal 3.4 + ${dbead}
    variable x equal 3.4 + 0.2
    variable y equal ${y0} + 1.5*${Ny}
    variable y equal 1 + 1.5*${Ny}
    variable y equal 1 + 1.5*2
    variable z equal ${z0} + 1.5*${Nz}
    variable z equal 2 + 1.5*${Nz}
    variable z equal 2 + 1.5*1
    create_atoms 2 single ${x} ${y} ${z}
    create_atoms 2 single 3.6 ${y} ${z}
    create_atoms 2 single 3.6 4 ${z}
    create_atoms 2 single 3.6 4 3.5
Created 1 atoms
  using lattice units in orthogonal box = (0 0 0) to (92.831777 92.831777 92.831777)
  create_atoms CPU = 0.000 seconds
    variable x0 equal ${x}
    variable x0 equal 3.6
    variable step equal ${step} + 1
    variable step equal 13 + 1
jump SELF loop_bead
if "${step} > ${N}" then "jump SELF end_inner"
    variable x equal ${x0} + ${dbead}
    variable x equal 3.6 + ${dbead}
    variable x equal 3.6 + 0.2
    variable y equal ${y0} + 1.5*${Ny}
    variable y equal 1 + 1.5*${Ny}
    variable y equal 1 + 1.5*2
    variable z equal ${z0} + 1.5*${Nz}
    variable z equal 2 + 1.5*${Nz}
    variable z equal 2 + 1.5*1
    create_atoms 2 single ${x} ${y} ${z}
    create_atoms 2 single 3.8 ${y} ${z}
    create_atoms 2 single 3.8 4 ${z}
    create_atoms 2 single 3.8 4 3.5
Created 1 atoms
  using lattice units in orthogonal box = (0 0 0) to (92.831777 92.831777 92.831777)
  create_atoms CPU = 0.000 seconds
    variable x0 equal ${x}
    variable x0 equal 3.8
    variable step equal ${step} + 1
    variable step equal 14 + 1
jump SELF loop_bead
if "${step} > ${N}" then "jump SELF end_inner"
    variable x equal ${x0} + ${dbead}
    variable x equal 3.8 + ${dbead}
    variable x equal 3.8 + 0.2
    variable y equal ${y0} + 1.5*${Ny}
    variable y equal 1 + 1.5*${Ny}
    variable y equal 1 + 1.5*2
    variable z equal ${z0} + 1.5*${Nz}
    variable z equal 2 + 1.5*${Nz}
    variable z equal 2 + 1.5*1
    create_atoms 2 single ${x} ${y} ${z}
    create_atoms 2 single 4 ${y} ${z}
    create_atoms 2 single 4 4 ${z}
    create_atoms 2 single 4 4 3.5
Created 1 atoms
  using lattice units in orthogonal box = (0 0 0) to (92.831777 92.831777 92.831777)
  create_atoms CPU = 0.000 seconds
    variable x0 equal ${x}
    variable x0 equal 4
    variable step equal ${step} + 1
    variable step equal 15 + 1
jump SELF loop_bead
if "${step} > ${N}" then "jump SELF end_inner"
    variable x equal ${x0} + ${dbead}
    variable x equal 4 + ${dbead}
    variable x equal 4 + 0.2
    variable y equal ${y0} + 1.5*${Ny}
    variable y equal 1 + 1.5*${Ny}
    variable y equal 1 + 1.5*2
    variable z equal ${z0} + 1.5*${Nz}
    variable z equal 2 + 1.5*${Nz}
    variable z equal 2 + 1.5*1
    create_atoms 2 single ${x} ${y} ${z}
    create_atoms 2 single 4.2 ${y} ${z}
    create_atoms 2 single 4.2 4 ${z}
    create_atoms 2 single 4.2 4 3.5
Created 1 atoms
  using lattice units in orthogonal box = (0 0 0) to (92.831777 92.831777 92.831777)
  create_atoms CPU = 0.000 seconds
    variable x0 equal ${x}
    variable x0 equal 4.2
    variable step equal ${step} + 1
    variable step equal 16 + 1
jump SELF loop_bead
if "${step} > ${N}" then "jump SELF end_inner"
    variable x equal ${x0} + ${dbead}
    variable x equal 4.2 + ${dbead}
    variable x equal 4.2 + 0.2
    variable y equal ${y0} + 1.5*${Ny}
    variable y equal 1 + 1.5*${Ny}
    variable y equal 1 + 1.5*2
    variable z equal ${z0} + 1.5*${Nz}
    variable z equal 2 + 1.5*${Nz}
    variable z equal 2 + 1.5*1
    create_atoms 2 single ${x} ${y} ${z}
    create_atoms 2 single 4.4 ${y} ${z}
    create_atoms 2 single 4.4 4 ${z}
    create_atoms 2 single 4.4 4 3.5
Created 1 atoms
  using lattice units in orthogonal box = (0 0 0) to (92.831777 92.831777 92.831777)
  create_atoms CPU = 0.000 seconds
    variable x0 equal ${x}
    variable x0 equal 4.4
    variable step equal ${step} + 1
    variable step equal 17 + 1
jump SELF loop_bead
if "${step} > ${N}" then "jump SELF end_inner"
    variable x equal ${x0} + ${dbead}
    variable x equal 4.4 + ${dbead}
    variable x equal 4.4 + 0.2
    variable y equal ${y0} + 1.5*${Ny}
    variable y equal 1 + 1.5*${Ny}
    variable y equal 1 + 1.5*2
    variable z equal ${z0} + 1.5*${Nz}
    variable z equal 2 + 1.5*${Nz}
    variable z equal 2 + 1.5*1
    create_atoms 2 single ${x} ${y} ${z}
    create_atoms 2 single 4.6 ${y} ${z}
    create_atoms 2 single 4.6 4 ${z}
    create_atoms 2 single 4.6 4 3.5
Created 1 atoms
  using lattice units in orthogonal box = (0 0 0) to (92.831777 92.831777 92.831777)
  create_atoms CPU = 0.000 seconds
    variable x0 equal ${x}
    variable x0 equal 4.6
    variable step equal ${step} + 1
    variable step equal 18 + 1
jump SELF loop_bead
if "${step} > ${N}" then "jump SELF end_inner"
    variable x equal ${x0} + ${dbead}
    variable x equal 4.6 + ${dbead}
    variable x equal 4.6 + 0.2
    variable y equal ${y0} + 1.5*${Ny}
    variable y equal 1 + 1.5*${Ny}
    variable y equal 1 + 1.5*2
    variable z equal ${z0} + 1.5*${Nz}
    variable z equal 2 + 1.5*${Nz}
    variable z equal 2 + 1.5*1
    create_atoms 2 single ${x} ${y} ${z}
    create_atoms 2 single 4.8 ${y} ${z}
    create_atoms 2 single 4.8 4 ${z}
    create_atoms 2 single 4.8 4 3.5
Created 1 atoms
  using lattice units in orthogonal box = (0 0 0) to (92.831777 92.831777 92.831777)
  create_atoms CPU = 0.000 seconds
    variable x0 equal ${x}
    variable x0 equal 4.8
    variable step equal ${step} + 1
    variable step equal 19 + 1
jump SELF loop_bead
if "${step} > ${N}" then "jump SELF end_inner"
    variable x equal ${x0} + ${dbead}
    variable x equal 4.8 + ${dbead}
    variable x equal 4.8 + 0.2
    variable y equal ${y0} + 1.5*${Ny}
    variable y equal 1 + 1.5*${Ny}
    variable y equal 1 + 1.5*2
    variable z equal ${z0} + 1.5*${Nz}
    variable z equal 2 + 1.5*${Nz}
    variable z equal 2 + 1.5*1
    create_atoms 2 single ${x} ${y} ${z}
    create_atoms 2 single 5 ${y} ${z}
    create_atoms 2 single 5 4 ${z}
    create_atoms 2 single 5 4 3.5
Created 1 atoms
  using lattice units in orthogonal box = (0 0 0) to (92.831777 92.831777 92.831777)
  create_atoms CPU = 0.000 seconds
    variable x0 equal ${x}
    variable x0 equal 5
    variable step equal ${step} + 1
    variable step equal 20 + 1
jump SELF loop_bead
if "${step} > ${N}" then "jump SELF end_inner"
    variable x equal ${x0} + ${dbead}
    variable x equal 5 + ${dbead}
    variable x equal 5 + 0.2
    variable y equal ${y0} + 1.5*${Ny}
    variable y equal 1 + 1.5*${Ny}
    variable y equal 1 + 1.5*2
    variable z equal ${z0} + 1.5*${Nz}
    variable z equal 2 + 1.5*${Nz}
    variable z equal 2 + 1.5*1
    create_atoms 2 single ${x} ${y} ${z}
    create_atoms 2 single 5.2 ${y} ${z}
    create_atoms 2 single 5.2 4 ${z}
    create_atoms 2 single 5.2 4 3.5
Created 1 atoms
  using lattice units in orthogonal box = (0 0 0) to (92.831777 92.831777 92.831777)
  create_atoms CPU = 0.000 seconds
    variable x0 equal ${x}
    variable x0 equal 5.2
    variable step equal ${step} + 1
    variable step equal 21 + 1
jump SELF loop_bead
if "${step} > ${N}" then "jump SELF end_inner"
    variable x equal ${x0} + ${dbead}
    variable x equal 5.2 + ${dbead}
    variable x equal 5.2 + 0.2
    variable y equal ${y0} + 1.5*${Ny}
    variable y equal 1 + 1.5*${Ny}
    variable y equal 1 + 1.5*2
    variable z equal ${z0} + 1.5*${Nz}
    variable z equal 2 + 1.5*${Nz}
    variable z equal 2 + 1.5*1
    create_atoms 2 single ${x} ${y} ${z}
    create_atoms 2 single 5.4 ${y} ${z}
    create_atoms 2 single 5.4 4 ${z}
    create_atoms 2 single 5.4 4 3.5
Created 1 atoms
  using lattice units in orthogonal box = (0 0 0) to (92.831777 92.831777 92.831777)
  create_atoms CPU = 0.000 seconds
    variable x0 equal ${x}
    variable x0 equal 5.4
    variable step equal ${step} + 1
    variable step equal 22 + 1
jump SELF loop_bead
if "${step} > ${N}" then "jump SELF end_inner"
    variable x equal ${x0} + ${dbead}
    variable x equal 5.4 + ${dbead}
    variable x equal 5.4 + 0.2
    variable y equal ${y0} + 1.5*${Ny}
    variable y equal 1 + 1.5*${Ny}
    variable y equal 1 + 1.5*2
    variable z equal ${z0} + 1.5*${Nz}
    variable z equal 2 + 1.5*${Nz}
    variable z equal 2 + 1.5*1
    create_atoms 2 single ${x} ${y} ${z}
    create_atoms 2 single 5.6 ${y} ${z}
    create_atoms 2 single 5.6 4 ${z}
    create_atoms 2 single 5.6 4 3.5
Created 1 atoms
  using lattice units in orthogonal box = (0 0 0) to (92.831777 92.831777 92.831777)
  create_atoms CPU = 0.000 seconds
    variable x0 equal ${x}
    variable x0 equal 5.6
    variable step equal ${step} + 1
    variable step equal 23 + 1
jump SELF loop_bead
if "${step} > ${N}" then "jump SELF end_inner"
    variable x equal ${x0} + ${dbead}
    variable x equal 5.6 + ${dbead}
    variable x equal 5.6 + 0.2
    variable y equal ${y0} + 1.5*${Ny}
    variable y equal 1 + 1.5*${Ny}
    variable y equal 1 + 1.5*2
    variable z equal ${z0} + 1.5*${Nz}
    variable z equal 2 + 1.5*${Nz}
    variable z equal 2 + 1.5*1
    create_atoms 2 single ${x} ${y} ${z}
    create_atoms 2 single 5.8 ${y} ${z}
    create_atoms 2 single 5.8 4 ${z}
    create_atoms 2 single 5.8 4 3.5
Created 1 atoms
  using lattice units in orthogonal box = (0 0 0) to (92.831777 92.831777 92.831777)
  create_atoms CPU = 0.000 seconds
    variable x0 equal ${x}
    variable x0 equal 5.8
    variable step equal ${step} + 1
    variable step equal 24 + 1
jump SELF loop_bead
if "${step} > ${N}" then "jump SELF end_inner"
    variable x equal ${x0} + ${dbead}
    variable x equal 5.8 + ${dbead}
    variable x equal 5.8 + 0.2
    variable y equal ${y0} + 1.5*${Ny}
    variable y equal 1 + 1.5*${Ny}
    variable y equal 1 + 1.5*2
    variable z equal ${z0} + 1.5*${Nz}
    variable z equal 2 + 1.5*${Nz}
    variable z equal 2 + 1.5*1
    create_atoms 2 single ${x} ${y} ${z}
    create_atoms 2 single 6 ${y} ${z}
    create_atoms 2 single 6 4 ${z}
    create_atoms 2 single 6 4 3.5
Created 1 atoms
  using lattice units in orthogonal box = (0 0 0) to (92.831777 92.831777 92.831777)
  create_atoms CPU = 0.000 seconds
    variable x0 equal ${x}
    variable x0 equal 6
    variable step equal ${step} + 1
    variable step equal 25 + 1
jump SELF loop_bead
if "${step} > ${N}" then "jump SELF end_inner"
    variable x equal ${x0} + ${dbead}
    variable x equal 6 + ${dbead}
    variable x equal 6 + 0.2
    variable y equal ${y0} + 1.5*${Ny}
    variable y equal 1 + 1.5*${Ny}
    variable y equal 1 + 1.5*2
    variable z equal ${z0} + 1.5*${Nz}
    variable z equal 2 + 1.5*${Nz}
    variable z equal 2 + 1.5*1
    create_atoms 2 single ${x} ${y} ${z}
    create_atoms 2 single 6.2 ${y} ${z}
    create_atoms 2 single 6.2 4 ${z}
    create_atoms 2 single 6.2 4 3.5
Created 1 atoms
  using lattice units in orthogonal box = (0 0 0) to (92.831777 92.831777 92.831777)
  create_atoms CPU = 0.000 seconds
    variable x0 equal ${x}
    variable x0 equal 6.2
    variable step equal ${step} + 1
    variable step equal 26 + 1
jump SELF loop_bead
if "${step} > ${N}" then "jump SELF end_inner"
    variable x equal ${x0} + ${dbead}
    variable x equal 6.2 + ${dbead}
    variable x equal 6.2 + 0.2
    variable y equal ${y0} + 1.5*${Ny}
    variable y equal 1 + 1.5*${Ny}
    variable y equal 1 + 1.5*2
    variable z equal ${z0} + 1.5*${Nz}
    variable z equal 2 + 1.5*${Nz}
    variable z equal 2 + 1.5*1
    create_atoms 2 single ${x} ${y} ${z}
    create_atoms 2 single 6.4 ${y} ${z}
    create_atoms 2 single 6.4 4 ${z}
    create_atoms 2 single 6.4 4 3.5
Created 1 atoms
  using lattice units in orthogonal box = (0 0 0) to (92.831777 92.831777 92.831777)
  create_atoms CPU = 0.000 seconds
    variable x0 equal ${x}
    variable x0 equal 6.4
    variable step equal ${step} + 1
    variable step equal 27 + 1
jump SELF loop_bead
if "${step} > ${N}" then "jump SELF end_inner"
    variable x equal ${x0} + ${dbead}
    variable x equal 6.4 + ${dbead}
    variable x equal 6.4 + 0.2
    variable y equal ${y0} + 1.5*${Ny}
    variable y equal 1 + 1.5*${Ny}
    variable y equal 1 + 1.5*2
    variable z equal ${z0} + 1.5*${Nz}
    variable z equal 2 + 1.5*${Nz}
    variable z equal 2 + 1.5*1
    create_atoms 2 single ${x} ${y} ${z}
    create_atoms 2 single 6.6 ${y} ${z}
    create_atoms 2 single 6.6 4 ${z}
    create_atoms 2 single 6.6 4 3.5
Created 1 atoms
  using lattice units in orthogonal box = (0 0 0) to (92.831777 92.831777 92.831777)
  create_atoms CPU = 0.000 seconds
    variable x0 equal ${x}
    variable x0 equal 6.6
    variable step equal ${step} + 1
    variable step equal 28 + 1
jump SELF loop_bead
if "${step} > ${N}" then "jump SELF end_inner"
    variable x equal ${x0} + ${dbead}
    variable x equal 6.6 + ${dbead}
    variable x equal 6.6 + 0.2
    variable y equal ${y0} + 1.5*${Ny}
    variable y equal 1 + 1.5*${Ny}
    variable y equal 1 + 1.5*2
    variable z equal ${z0} + 1.5*${Nz}
    variable z equal 2 + 1.5*${Nz}
    variable z equal 2 + 1.5*1
    create_atoms 2 single ${x} ${y} ${z}
    create_atoms 2 single 6.8 ${y} ${z}
    create_atoms 2 single 6.8 4 ${z}
    create_atoms 2 single 6.8 4 3.5
Created 1 atoms
  using lattice units in orthogonal box = (0 0 0) to (92.831777 92.831777 92.831777)
  create_atoms CPU = 0.000 seconds
    variable x0 equal ${x}
    variable x0 equal 6.8
    variable step equal ${step} + 1
    variable step equal 29 + 1
jump SELF loop_bead
if "${step} > ${N}" then "jump SELF end_inner"
    variable x equal ${x0} + ${dbead}
    variable x equal 6.8 + ${dbead}
    variable x equal 6.8 + 0.2
    variable y equal ${y0} + 1.5*${Ny}
    variable y equal 1 + 1.5*${Ny}
    variable y equal 1 + 1.5*2
    variable z equal ${z0} + 1.5*${Nz}
    variable z equal 2 + 1.5*${Nz}
    variable z equal 2 + 1.5*1
    create_atoms 2 single ${x} ${y} ${z}
    create_atoms 2 single 7 ${y} ${z}
    create_atoms 2 single 7 4 ${z}
    create_atoms 2 single 7 4 3.5
Created 1 atoms
  using lattice units in orthogonal box = (0 0 0) to (92.831777 92.831777 92.831777)
  create_atoms CPU = 0.000 seconds
    variable x0 equal ${x}
    variable x0 equal 7
    variable step equal ${step} + 1
    variable step equal 30 + 1
jump SELF loop_bead
if "${step} > ${N}" then "jump SELF end_inner"
jump SELF end_inner
variable x0 equal 1.0
variable y0 equal 1.0
variable step equal 1
next Ny
jump SELF loop_y
label loop_bead
if "${step} > ${N}" then "jump SELF end_inner"
    variable x equal ${x0} + ${dbead}
    variable x equal 1 + ${dbead}
    variable x equal 1 + 0.2
    variable y equal ${y0} + 1.5*${Ny}
    variable y equal 1 + 1.5*${Ny}
    variable y equal 1 + 1.5*3
    variable z equal ${z0} + 1.5*${Nz}
    variable z equal 2 + 1.5*${Nz}
    variable z equal 2 + 1.5*1
    create_atoms 2 single ${x} ${y} ${z}
    create_atoms 2 single 1.2 ${y} ${z}
    create_atoms 2 single 1.2 5.5 ${z}
    create_atoms 2 single 1.2 5.5 3.5
Created 1 atoms
  using lattice units in orthogonal box = (0 0 0) to (92.831777 92.831777 92.831777)
  create_atoms CPU = 0.000 seconds
    variable x0 equal ${x}
    variable x0 equal 1.2
    variable step equal ${step} + 1
    variable step equal 1 + 1
jump SELF loop_bead
if "${step} > ${N}" then "jump SELF end_inner"
    variable x equal ${x0} + ${dbead}
    variable x equal 1.2 + ${dbead}
    variable x equal 1.2 + 0.2
    variable y equal ${y0} + 1.5*${Ny}
    variable y equal 1 + 1.5*${Ny}
    variable y equal 1 + 1.5*3
    variable z equal ${z0} + 1.5*${Nz}
    variable z equal 2 + 1.5*${Nz}
    variable z equal 2 + 1.5*1
    create_atoms 2 single ${x} ${y} ${z}
    create_atoms 2 single 1.4 ${y} ${z}
    create_atoms 2 single 1.4 5.5 ${z}
    create_atoms 2 single 1.4 5.5 3.5
Created 1 atoms
  using lattice units in orthogonal box = (0 0 0) to (92.831777 92.831777 92.831777)
  create_atoms CPU = 0.000 seconds
    variable x0 equal ${x}
    variable x0 equal 1.4
    variable step equal ${step} + 1
    variable step equal 2 + 1
jump SELF loop_bead
if "${step} > ${N}" then "jump SELF end_inner"
    variable x equal ${x0} + ${dbead}
    variable x equal 1.4 + ${dbead}
    variable x equal 1.4 + 0.2
    variable y equal ${y0} + 1.5*${Ny}
    variable y equal 1 + 1.5*${Ny}
    variable y equal 1 + 1.5*3
    variable z equal ${z0} + 1.5*${Nz}
    variable z equal 2 + 1.5*${Nz}
    variable z equal 2 + 1.5*1
    create_atoms 2 single ${x} ${y} ${z}
    create_atoms 2 single 1.6 ${y} ${z}
    create_atoms 2 single 1.6 5.5 ${z}
    create_atoms 2 single 1.6 5.5 3.5
Created 1 atoms
  using lattice units in orthogonal box = (0 0 0) to (92.831777 92.831777 92.831777)
  create_atoms CPU = 0.000 seconds
    variable x0 equal ${x}
    variable x0 equal 1.6
    variable step equal ${step} + 1
    variable step equal 3 + 1
jump SELF loop_bead
if "${step} > ${N}" then "jump SELF end_inner"
    variable x equal ${x0} + ${dbead}
    variable x equal 1.6 + ${dbead}
    variable x equal 1.6 + 0.2
    variable y equal ${y0} + 1.5*${Ny}
    variable y equal 1 + 1.5*${Ny}
    variable y equal 1 + 1.5*3
    variable z equal ${z0} + 1.5*${Nz}
    variable z equal 2 + 1.5*${Nz}
    variable z equal 2 + 1.5*1
    create_atoms 2 single ${x} ${y} ${z}
    create_atoms 2 single 1.8 ${y} ${z}
    create_atoms 2 single 1.8 5.5 ${z}
    create_atoms 2 single 1.8 5.5 3.5
Created 1 atoms
  using lattice units in orthogonal box = (0 0 0) to (92.831777 92.831777 92.831777)
  create_atoms CPU = 0.000 seconds
    variable x0 equal ${x}
    variable x0 equal 1.8
    variable step equal ${step} + 1
    variable step equal 4 + 1
jump SELF loop_bead
if "${step} > ${N}" then "jump SELF end_inner"
    variable x equal ${x0} + ${dbead}
    variable x equal 1.8 + ${dbead}
    variable x equal 1.8 + 0.2
    variable y equal ${y0} + 1.5*${Ny}
    variable y equal 1 + 1.5*${Ny}
    variable y equal 1 + 1.5*3
    variable z equal ${z0} + 1.5*${Nz}
    variable z equal 2 + 1.5*${Nz}
    variable z equal 2 + 1.5*1
    create_atoms 2 single ${x} ${y} ${z}
    create_atoms 2 single 2 ${y} ${z}
    create_atoms 2 single 2 5.5 ${z}
    create_atoms 2 single 2 5.5 3.5
Created 1 atoms
  using lattice units in orthogonal box = (0 0 0) to (92.831777 92.831777 92.831777)
  create_atoms CPU = 0.000 seconds
    variable x0 equal ${x}
    variable x0 equal 2
    variable step equal ${step} + 1
    variable step equal 5 + 1
jump SELF loop_bead
if "${step} > ${N}" then "jump SELF end_inner"
    variable x equal ${x0} + ${dbead}
    variable x equal 2 + ${dbead}
    variable x equal 2 + 0.2
    variable y equal ${y0} + 1.5*${Ny}
    variable y equal 1 + 1.5*${Ny}
    variable y equal 1 + 1.5*3
    variable z equal ${z0} + 1.5*${Nz}
    variable z equal 2 + 1.5*${Nz}
    variable z equal 2 + 1.5*1
    create_atoms 2 single ${x} ${y} ${z}
    create_atoms 2 single 2.2 ${y} ${z}
    create_atoms 2 single 2.2 5.5 ${z}
    create_atoms 2 single 2.2 5.5 3.5
Created 1 atoms
  using lattice units in orthogonal box = (0 0 0) to (92.831777 92.831777 92.831777)
  create_atoms CPU = 0.000 seconds
    variable x0 equal ${x}
    variable x0 equal 2.2
    variable step equal ${step} + 1
    variable step equal 6 + 1
jump SELF loop_bead
if "${step} > ${N}" then "jump SELF end_inner"
    variable x equal ${x0} + ${dbead}
    variable x equal 2.2 + ${dbead}
    variable x equal 2.2 + 0.2
    variable y equal ${y0} + 1.5*${Ny}
    variable y equal 1 + 1.5*${Ny}
    variable y equal 1 + 1.5*3
    variable z equal ${z0} + 1.5*${Nz}
    variable z equal 2 + 1.5*${Nz}
    variable z equal 2 + 1.5*1
    create_atoms 2 single ${x} ${y} ${z}
    create_atoms 2 single 2.4 ${y} ${z}
    create_atoms 2 single 2.4 5.5 ${z}
    create_atoms 2 single 2.4 5.5 3.5
Created 1 atoms
  using lattice units in orthogonal box = (0 0 0) to (92.831777 92.831777 92.831777)
  create_atoms CPU = 0.000 seconds
    variable x0 equal ${x}
    variable x0 equal 2.4
    variable step equal ${step} + 1
    variable step equal 7 + 1
jump SELF loop_bead
if "${step} > ${N}" then "jump SELF end_inner"
    variable x equal ${x0} + ${dbead}
    variable x equal 2.4 + ${dbead}
    variable x equal 2.4 + 0.2
    variable y equal ${y0} + 1.5*${Ny}
    variable y equal 1 + 1.5*${Ny}
    variable y equal 1 + 1.5*3
    variable z equal ${z0} + 1.5*${Nz}
    variable z equal 2 + 1.5*${Nz}
    variable z equal 2 + 1.5*1
    create_atoms 2 single ${x} ${y} ${z}
    create_atoms 2 single 2.6 ${y} ${z}
    create_atoms 2 single 2.6 5.5 ${z}
    create_atoms 2 single 2.6 5.5 3.5
Created 1 atoms
  using lattice units in orthogonal box = (0 0 0) to (92.831777 92.831777 92.831777)
  create_atoms CPU = 0.000 seconds
    variable x0 equal ${x}
    variable x0 equal 2.6
    variable step equal ${step} + 1
    variable step equal 8 + 1
jump SELF loop_bead
if "${step} > ${N}" then "jump SELF end_inner"
    variable x equal ${x0} + ${dbead}
    variable x equal 2.6 + ${dbead}
    variable x equal 2.6 + 0.2
    variable y equal ${y0} + 1.5*${Ny}
    variable y equal 1 + 1.5*${Ny}
    variable y equal 1 + 1.5*3
    variable z equal ${z0} + 1.5*${Nz}
    variable z equal 2 + 1.5*${Nz}
    variable z equal 2 + 1.5*1
    create_atoms 2 single ${x} ${y} ${z}
    create_atoms 2 single 2.8 ${y} ${z}
    create_atoms 2 single 2.8 5.5 ${z}
    create_atoms 2 single 2.8 5.5 3.5
Created 1 atoms
  using lattice units in orthogonal box = (0 0 0) to (92.831777 92.831777 92.831777)
  create_atoms CPU = 0.000 seconds
    variable x0 equal ${x}
    variable x0 equal 2.8
    variable step equal ${step} + 1
    variable step equal 9 + 1
jump SELF loop_bead
if "${step} > ${N}" then "jump SELF end_inner"
    variable x equal ${x0} + ${dbead}
    variable x equal 2.8 + ${dbead}
    variable x equal 2.8 + 0.2
    variable y equal ${y0} + 1.5*${Ny}
    variable y equal 1 + 1.5*${Ny}
    variable y equal 1 + 1.5*3
    variable z equal ${z0} + 1.5*${Nz}
    variable z equal 2 + 1.5*${Nz}
    variable z equal 2 + 1.5*1
    create_atoms 2 single ${x} ${y} ${z}
    create_atoms 2 single 3 ${y} ${z}
    create_atoms 2 single 3 5.5 ${z}
    create_atoms 2 single 3 5.5 3.5
Created 1 atoms
  using lattice units in orthogonal box = (0 0 0) to (92.831777 92.831777 92.831777)
  create_atoms CPU = 0.000 seconds
    variable x0 equal ${x}
    variable x0 equal 3
    variable step equal ${step} + 1
    variable step equal 10 + 1
jump SELF loop_bead
if "${step} > ${N}" then "jump SELF end_inner"
    variable x equal ${x0} + ${dbead}
    variable x equal 3 + ${dbead}
    variable x equal 3 + 0.2
    variable y equal ${y0} + 1.5*${Ny}
    variable y equal 1 + 1.5*${Ny}
    variable y equal 1 + 1.5*3
    variable z equal ${z0} + 1.5*${Nz}
    variable z equal 2 + 1.5*${Nz}
    variable z equal 2 + 1.5*1
    create_atoms 2 single ${x} ${y} ${z}
    create_atoms 2 single 3.2 ${y} ${z}
    create_atoms 2 single 3.2 5.5 ${z}
    create_atoms 2 single 3.2 5.5 3.5
Created 1 atoms
  using lattice units in orthogonal box = (0 0 0) to (92.831777 92.831777 92.831777)
  create_atoms CPU = 0.000 seconds
    variable x0 equal ${x}
    variable x0 equal 3.2
    variable step equal ${step} + 1
    variable step equal 11 + 1
jump SELF loop_bead
if "${step} > ${N}" then "jump SELF end_inner"
    variable x equal ${x0} + ${dbead}
    variable x equal 3.2 + ${dbead}
    variable x equal 3.2 + 0.2
    variable y equal ${y0} + 1.5*${Ny}
    variable y equal 1 + 1.5*${Ny}
    variable y equal 1 + 1.5*3
    variable z equal ${z0} + 1.5*${Nz}
    variable z equal 2 + 1.5*${Nz}
    variable z equal 2 + 1.5*1
    create_atoms 2 single ${x} ${y} ${z}
    create_atoms 2 single 3.4 ${y} ${z}
    create_atoms 2 single 3.4 5.5 ${z}
    create_atoms 2 single 3.4 5.5 3.5
Created 1 atoms
  using lattice units in orthogonal box = (0 0 0) to (92.831777 92.831777 92.831777)
  create_atoms CPU = 0.000 seconds
    variable x0 equal ${x}
    variable x0 equal 3.4
    variable step equal ${step} + 1
    variable step equal 12 + 1
jump SELF loop_bead
if "${step} > ${N}" then "jump SELF end_inner"
    variable x equal ${x0} + ${dbead}
    variable x equal 3.4 + ${dbead}
    variable x equal 3.4 + 0.2
    variable y equal ${y0} + 1.5*${Ny}
    variable y equal 1 + 1.5*${Ny}
    variable y equal 1 + 1.5*3
    variable z equal ${z0} + 1.5*${Nz}
    variable z equal 2 + 1.5*${Nz}
    variable z equal 2 + 1.5*1
    create_atoms 2 single ${x} ${y} ${z}
    create_atoms 2 single 3.6 ${y} ${z}
    create_atoms 2 single 3.6 5.5 ${z}
    create_atoms 2 single 3.6 5.5 3.5
Created 1 atoms
  using lattice units in orthogonal box = (0 0 0) to (92.831777 92.831777 92.831777)
  create_atoms CPU = 0.000 seconds
    variable x0 equal ${x}
    variable x0 equal 3.6
    variable step equal ${step} + 1
    variable step equal 13 + 1
jump SELF loop_bead
if "${step} > ${N}" then "jump SELF end_inner"
    variable x equal ${x0} + ${dbead}
    variable x equal 3.6 + ${dbead}
    variable x equal 3.6 + 0.2
    variable y equal ${y0} + 1.5*${Ny}
    variable y equal 1 + 1.5*${Ny}
    variable y equal 1 + 1.5*3
    variable z equal ${z0} + 1.5*${Nz}
    variable z equal 2 + 1.5*${Nz}
    variable z equal 2 + 1.5*1
    create_atoms 2 single ${x} ${y} ${z}
    create_atoms 2 single 3.8 ${y} ${z}
    create_atoms 2 single 3.8 5.5 ${z}
    create_atoms 2 single 3.8 5.5 3.5
Created 1 atoms
  using lattice units in orthogonal box = (0 0 0) to (92.831777 92.831777 92.831777)
  create_atoms CPU = 0.000 seconds
    variable x0 equal ${x}
    variable x0 equal 3.8
    variable step equal ${step} + 1
    variable step equal 14 + 1
jump SELF loop_bead
if "${step} > ${N}" then "jump SELF end_inner"
    variable x equal ${x0} + ${dbead}
    variable x equal 3.8 + ${dbead}
    variable x equal 3.8 + 0.2
    variable y equal ${y0} + 1.5*${Ny}
    variable y equal 1 + 1.5*${Ny}
    variable y equal 1 + 1.5*3
    variable z equal ${z0} + 1.5*${Nz}
    variable z equal 2 + 1.5*${Nz}
    variable z equal 2 + 1.5*1
    create_atoms 2 single ${x} ${y} ${z}
    create_atoms 2 single 4 ${y} ${z}
    create_atoms 2 single 4 5.5 ${z}
    create_atoms 2 single 4 5.5 3.5
Created 1 atoms
  using lattice units in orthogonal box = (0 0 0) to (92.831777 92.831777 92.831777)
  create_atoms CPU = 0.000 seconds
    variable x0 equal ${x}
    variable x0 equal 4
    variable step equal ${step} + 1
    variable step equal 15 + 1
jump SELF loop_bead
if "${step} > ${N}" then "jump SELF end_inner"
    variable x equal ${x0} + ${dbead}
    variable x equal 4 + ${dbead}
    variable x equal 4 + 0.2
    variable y equal ${y0} + 1.5*${Ny}
    variable y equal 1 + 1.5*${Ny}
    variable y equal 1 + 1.5*3
    variable z equal ${z0} + 1.5*${Nz}
    variable z equal 2 + 1.5*${Nz}
    variable z equal 2 + 1.5*1
    create_atoms 2 single ${x} ${y} ${z}
    create_atoms 2 single 4.2 ${y} ${z}
    create_atoms 2 single 4.2 5.5 ${z}
    create_atoms 2 single 4.2 5.5 3.5
Created 1 atoms
  using lattice units in orthogonal box = (0 0 0) to (92.831777 92.831777 92.831777)
  create_atoms CPU = 0.000 seconds
    variable x0 equal ${x}
    variable x0 equal 4.2
    variable step equal ${step} + 1
    variable step equal 16 + 1
jump SELF loop_bead
if "${step} > ${N}" then "jump SELF end_inner"
    variable x equal ${x0} + ${dbead}
    variable x equal 4.2 + ${dbead}
    variable x equal 4.2 + 0.2
    variable y equal ${y0} + 1.5*${Ny}
    variable y equal 1 + 1.5*${Ny}
    variable y equal 1 + 1.5*3
    variable z equal ${z0} + 1.5*${Nz}
    variable z equal 2 + 1.5*${Nz}
    variable z equal 2 + 1.5*1
    create_atoms 2 single ${x} ${y} ${z}
    create_atoms 2 single 4.4 ${y} ${z}
    create_atoms 2 single 4.4 5.5 ${z}
    create_atoms 2 single 4.4 5.5 3.5
Created 1 atoms
  using lattice units in orthogonal box = (0 0 0) to (92.831777 92.831777 92.831777)
  create_atoms CPU = 0.000 seconds
    variable x0 equal ${x}
    variable x0 equal 4.4
    variable step equal ${step} + 1
    variable step equal 17 + 1
jump SELF loop_bead
if "${step} > ${N}" then "jump SELF end_inner"
    variable x equal ${x0} + ${dbead}
    variable x equal 4.4 + ${dbead}
    variable x equal 4.4 + 0.2
    variable y equal ${y0} + 1.5*${Ny}
    variable y equal 1 + 1.5*${Ny}
    variable y equal 1 + 1.5*3
    variable z equal ${z0} + 1.5*${Nz}
    variable z equal 2 + 1.5*${Nz}
    variable z equal 2 + 1.5*1
    create_atoms 2 single ${x} ${y} ${z}
    create_atoms 2 single 4.6 ${y} ${z}
    create_atoms 2 single 4.6 5.5 ${z}
    create_atoms 2 single 4.6 5.5 3.5
Created 1 atoms
  using lattice units in orthogonal box = (0 0 0) to (92.831777 92.831777 92.831777)
  create_atoms CPU = 0.000 seconds
    variable x0 equal ${x}
    variable x0 equal 4.6
    variable step equal ${step} + 1
    variable step equal 18 + 1
jump SELF loop_bead
if "${step} > ${N}" then "jump SELF end_inner"
    variable x equal ${x0} + ${dbead}
    variable x equal 4.6 + ${dbead}
    variable x equal 4.6 + 0.2
    variable y equal ${y0} + 1.5*${Ny}
    variable y equal 1 + 1.5*${Ny}
    variable y equal 1 + 1.5*3
    variable z equal ${z0} + 1.5*${Nz}
    variable z equal 2 + 1.5*${Nz}
    variable z equal 2 + 1.5*1
    create_atoms 2 single ${x} ${y} ${z}
    create_atoms 2 single 4.8 ${y} ${z}
    create_atoms 2 single 4.8 5.5 ${z}
    create_atoms 2 single 4.8 5.5 3.5
Created 1 atoms
  using lattice units in orthogonal box = (0 0 0) to (92.831777 92.831777 92.831777)
  create_atoms CPU = 0.000 seconds
    variable x0 equal ${x}
    variable x0 equal 4.8
    variable step equal ${step} + 1
    variable step equal 19 + 1
jump SELF loop_bead
if "${step} > ${N}" then "jump SELF end_inner"
    variable x equal ${x0} + ${dbead}
    variable x equal 4.8 + ${dbead}
    variable x equal 4.8 + 0.2
    variable y equal ${y0} + 1.5*${Ny}
    variable y equal 1 + 1.5*${Ny}
    variable y equal 1 + 1.5*3
    variable z equal ${z0} + 1.5*${Nz}
    variable z equal 2 + 1.5*${Nz}
    variable z equal 2 + 1.5*1
    create_atoms 2 single ${x} ${y} ${z}
    create_atoms 2 single 5 ${y} ${z}
    create_atoms 2 single 5 5.5 ${z}
    create_atoms 2 single 5 5.5 3.5
Created 1 atoms
  using lattice units in orthogonal box = (0 0 0) to (92.831777 92.831777 92.831777)
  create_atoms CPU = 0.000 seconds
    variable x0 equal ${x}
    variable x0 equal 5
    variable step equal ${step} + 1
    variable step equal 20 + 1
jump SELF loop_bead
if "${step} > ${N}" then "jump SELF end_inner"
    variable x equal ${x0} + ${dbead}
    variable x equal 5 + ${dbead}
    variable x equal 5 + 0.2
    variable y equal ${y0} + 1.5*${Ny}
    variable y equal 1 + 1.5*${Ny}
    variable y equal 1 + 1.5*3
    variable z equal ${z0} + 1.5*${Nz}
    variable z equal 2 + 1.5*${Nz}
    variable z equal 2 + 1.5*1
    create_atoms 2 single ${x} ${y} ${z}
    create_atoms 2 single 5.2 ${y} ${z}
    create_atoms 2 single 5.2 5.5 ${z}
    create_atoms 2 single 5.2 5.5 3.5
Created 1 atoms
  using lattice units in orthogonal box = (0 0 0) to (92.831777 92.831777 92.831777)
  create_atoms CPU = 0.000 seconds
    variable x0 equal ${x}
    variable x0 equal 5.2
    variable step equal ${step} + 1
    variable step equal 21 + 1
jump SELF loop_bead
if "${step} > ${N}" then "jump SELF end_inner"
    variable x equal ${x0} + ${dbead}
    variable x equal 5.2 + ${dbead}
    variable x equal 5.2 + 0.2
    variable y equal ${y0} + 1.5*${Ny}
    variable y equal 1 + 1.5*${Ny}
    variable y equal 1 + 1.5*3
    variable z equal ${z0} + 1.5*${Nz}
    variable z equal 2 + 1.5*${Nz}
    variable z equal 2 + 1.5*1
    create_atoms 2 single ${x} ${y} ${z}
    create_atoms 2 single 5.4 ${y} ${z}
    create_atoms 2 single 5.4 5.5 ${z}
    create_atoms 2 single 5.4 5.5 3.5
Created 1 atoms
  using lattice units in orthogonal box = (0 0 0) to (92.831777 92.831777 92.831777)
  create_atoms CPU = 0.000 seconds
    variable x0 equal ${x}
    variable x0 equal 5.4
    variable step equal ${step} + 1
    variable step equal 22 + 1
jump SELF loop_bead
if "${step} > ${N}" then "jump SELF end_inner"
    variable x equal ${x0} + ${dbead}
    variable x equal 5.4 + ${dbead}
    variable x equal 5.4 + 0.2
    variable y equal ${y0} + 1.5*${Ny}
    variable y equal 1 + 1.5*${Ny}
    variable y equal 1 + 1.5*3
    variable z equal ${z0} + 1.5*${Nz}
    variable z equal 2 + 1.5*${Nz}
    variable z equal 2 + 1.5*1
    create_atoms 2 single ${x} ${y} ${z}
    create_atoms 2 single 5.6 ${y} ${z}
    create_atoms 2 single 5.6 5.5 ${z}
    create_atoms 2 single 5.6 5.5 3.5
Created 1 atoms
  using lattice units in orthogonal box = (0 0 0) to (92.831777 92.831777 92.831777)
  create_atoms CPU = 0.000 seconds
    variable x0 equal ${x}
    variable x0 equal 5.6
    variable step equal ${step} + 1
    variable step equal 23 + 1
jump SELF loop_bead
if "${step} > ${N}" then "jump SELF end_inner"
    variable x equal ${x0} + ${dbead}
    variable x equal 5.6 + ${dbead}
    variable x equal 5.6 + 0.2
    variable y equal ${y0} + 1.5*${Ny}
    variable y equal 1 + 1.5*${Ny}
    variable y equal 1 + 1.5*3
    variable z equal ${z0} + 1.5*${Nz}
    variable z equal 2 + 1.5*${Nz}
    variable z equal 2 + 1.5*1
    create_atoms 2 single ${x} ${y} ${z}
    create_atoms 2 single 5.8 ${y} ${z}
    create_atoms 2 single 5.8 5.5 ${z}
    create_atoms 2 single 5.8 5.5 3.5
Created 1 atoms
  using lattice units in orthogonal box = (0 0 0) to (92.831777 92.831777 92.831777)
  create_atoms CPU = 0.000 seconds
    variable x0 equal ${x}
    variable x0 equal 5.8
    variable step equal ${step} + 1
    variable step equal 24 + 1
jump SELF loop_bead
if "${step} > ${N}" then "jump SELF end_inner"
    variable x equal ${x0} + ${dbead}
    variable x equal 5.8 + ${dbead}
    variable x equal 5.8 + 0.2
    variable y equal ${y0} + 1.5*${Ny}
    variable y equal 1 + 1.5*${Ny}
    variable y equal 1 + 1.5*3
    variable z equal ${z0} + 1.5*${Nz}
    variable z equal 2 + 1.5*${Nz}
    variable z equal 2 + 1.5*1
    create_atoms 2 single ${x} ${y} ${z}
    create_atoms 2 single 6 ${y} ${z}
    create_atoms 2 single 6 5.5 ${z}
    create_atoms 2 single 6 5.5 3.5
Created 1 atoms
  using lattice units in orthogonal box = (0 0 0) to (92.831777 92.831777 92.831777)
  create_atoms CPU = 0.000 seconds
    variable x0 equal ${x}
    variable x0 equal 6
    variable step equal ${step} + 1
    variable step equal 25 + 1
jump SELF loop_bead
if "${step} > ${N}" then "jump SELF end_inner"
    variable x equal ${x0} + ${dbead}
    variable x equal 6 + ${dbead}
    variable x equal 6 + 0.2
    variable y equal ${y0} + 1.5*${Ny}
    variable y equal 1 + 1.5*${Ny}
    variable y equal 1 + 1.5*3
    variable z equal ${z0} + 1.5*${Nz}
    variable z equal 2 + 1.5*${Nz}
    variable z equal 2 + 1.5*1
    create_atoms 2 single ${x} ${y} ${z}
    create_atoms 2 single 6.2 ${y} ${z}
    create_atoms 2 single 6.2 5.5 ${z}
    create_atoms 2 single 6.2 5.5 3.5
Created 1 atoms
  using lattice units in orthogonal box = (0 0 0) to (92.831777 92.831777 92.831777)
  create_atoms CPU = 0.000 seconds
    variable x0 equal ${x}
    variable x0 equal 6.2
    variable step equal ${step} + 1
    variable step equal 26 + 1
jump SELF loop_bead
if "${step} > ${N}" then "jump SELF end_inner"
    variable x equal ${x0} + ${dbead}
    variable x equal 6.2 + ${dbead}
    variable x equal 6.2 + 0.2
    variable y equal ${y0} + 1.5*${Ny}
    variable y equal 1 + 1.5*${Ny}
    variable y equal 1 + 1.5*3
    variable z equal ${z0} + 1.5*${Nz}
    variable z equal 2 + 1.5*${Nz}
    variable z equal 2 + 1.5*1
    create_atoms 2 single ${x} ${y} ${z}
    create_atoms 2 single 6.4 ${y} ${z}
    create_atoms 2 single 6.4 5.5 ${z}
    create_atoms 2 single 6.4 5.5 3.5
Created 1 atoms
  using lattice units in orthogonal box = (0 0 0) to (92.831777 92.831777 92.831777)
  create_atoms CPU = 0.000 seconds
    variable x0 equal ${x}
    variable x0 equal 6.4
    variable step equal ${step} + 1
    variable step equal 27 + 1
jump SELF loop_bead
if "${step} > ${N}" then "jump SELF end_inner"
    variable x equal ${x0} + ${dbead}
    variable x equal 6.4 + ${dbead}
    variable x equal 6.4 + 0.2
    variable y equal ${y0} + 1.5*${Ny}
    variable y equal 1 + 1.5*${Ny}
    variable y equal 1 + 1.5*3
    variable z equal ${z0} + 1.5*${Nz}
    variable z equal 2 + 1.5*${Nz}
    variable z equal 2 + 1.5*1
    create_atoms 2 single ${x} ${y} ${z}
    create_atoms 2 single 6.6 ${y} ${z}
    create_atoms 2 single 6.6 5.5 ${z}
    create_atoms 2 single 6.6 5.5 3.5
Created 1 atoms
  using lattice units in orthogonal box = (0 0 0) to (92.831777 92.831777 92.831777)
  create_atoms CPU = 0.000 seconds
    variable x0 equal ${x}
    variable x0 equal 6.6
    variable step equal ${step} + 1
    variable step equal 28 + 1
jump SELF loop_bead
if "${step} > ${N}" then "jump SELF end_inner"
    variable x equal ${x0} + ${dbead}
    variable x equal 6.6 + ${dbead}
    variable x equal 6.6 + 0.2
    variable y equal ${y0} + 1.5*${Ny}
    variable y equal 1 + 1.5*${Ny}
    variable y equal 1 + 1.5*3
    variable z equal ${z0} + 1.5*${Nz}
    variable z equal 2 + 1.5*${Nz}
    variable z equal 2 + 1.5*1
    create_atoms 2 single ${x} ${y} ${z}
    create_atoms 2 single 6.8 ${y} ${z}
    create_atoms 2 single 6.8 5.5 ${z}
    create_atoms 2 single 6.8 5.5 3.5
Created 1 atoms
  using lattice units in orthogonal box = (0 0 0) to (92.831777 92.831777 92.831777)
  create_atoms CPU = 0.000 seconds
    variable x0 equal ${x}
    variable x0 equal 6.8
    variable step equal ${step} + 1
    variable step equal 29 + 1
jump SELF loop_bead
if "${step} > ${N}" then "jump SELF end_inner"
    variable x equal ${x0} + ${dbead}
    variable x equal 6.8 + ${dbead}
    variable x equal 6.8 + 0.2
    variable y equal ${y0} + 1.5*${Ny}
    variable y equal 1 + 1.5*${Ny}
    variable y equal 1 + 1.5*3
    variable z equal ${z0} + 1.5*${Nz}
    variable z equal 2 + 1.5*${Nz}
    variable z equal 2 + 1.5*1
    create_atoms 2 single ${x} ${y} ${z}
    create_atoms 2 single 7 ${y} ${z}
    create_atoms 2 single 7 5.5 ${z}
    create_atoms 2 single 7 5.5 3.5
Created 1 atoms
  using lattice units in orthogonal box = (0 0 0) to (92.831777 92.831777 92.831777)
  create_atoms CPU = 0.000 seconds
    variable x0 equal ${x}
    variable x0 equal 7
    variable step equal ${step} + 1
    variable step equal 30 + 1
jump SELF loop_bead
if "${step} > ${N}" then "jump SELF end_inner"
jump SELF end_inner
variable x0 equal 1.0
variable y0 equal 1.0
variable step equal 1
next Ny
jump SELF loop_y
label loop_bead
if "${step} > ${N}" then "jump SELF end_inner"
    variable x equal ${x0} + ${dbead}
    variable x equal 1 + ${dbead}
    variable x equal 1 + 0.2
    variable y equal ${y0} + 1.5*${Ny}
    variable y equal 1 + 1.5*${Ny}
    variable y equal 1 + 1.5*4
    variable z equal ${z0} + 1.5*${Nz}
    variable z equal 2 + 1.5*${Nz}
    variable z equal 2 + 1.5*1
    create_atoms 2 single ${x} ${y} ${z}
    create_atoms 2 single 1.2 ${y} ${z}
    create_atoms 2 single 1.2 7 ${z}
    create_atoms 2 single 1.2 7 3.5
Created 1 atoms
  using lattice units in orthogonal box = (0 0 0) to (92.831777 92.831777 92.831777)
  create_atoms CPU = 0.000 seconds
    variable x0 equal ${x}
    variable x0 equal 1.2
    variable step equal ${step} + 1
    variable step equal 1 + 1
jump SELF loop_bead
if "${step} > ${N}" then "jump SELF end_inner"
    variable x equal ${x0} + ${dbead}
    variable x equal 1.2 + ${dbead}
    variable x equal 1.2 + 0.2
    variable y equal ${y0} + 1.5*${Ny}
    variable y equal 1 + 1.5*${Ny}
    variable y equal 1 + 1.5*4
    variable z equal ${z0} + 1.5*${Nz}
    variable z equal 2 + 1.5*${Nz}
    variable z equal 2 + 1.5*1
    create_atoms 2 single ${x} ${y} ${z}
    create_atoms 2 single 1.4 ${y} ${z}
    create_atoms 2 single 1.4 7 ${z}
    create_atoms 2 single 1.4 7 3.5
Created 1 atoms
  using lattice units in orthogonal box = (0 0 0) to (92.831777 92.831777 92.831777)
  create_atoms CPU = 0.000 seconds
    variable x0 equal ${x}
    variable x0 equal 1.4
    variable step equal ${step} + 1
    variable step equal 2 + 1
jump SELF loop_bead
if "${step} > ${N}" then "jump SELF end_inner"
    variable x equal ${x0} + ${dbead}
    variable x equal 1.4 + ${dbead}
    variable x equal 1.4 + 0.2
    variable y equal ${y0} + 1.5*${Ny}
    variable y equal 1 + 1.5*${Ny}
    variable y equal 1 + 1.5*4
    variable z equal ${z0} + 1.5*${Nz}
    variable z equal 2 + 1.5*${Nz}
    variable z equal 2 + 1.5*1
    create_atoms 2 single ${x} ${y} ${z}
    create_atoms 2 single 1.6 ${y} ${z}
    create_atoms 2 single 1.6 7 ${z}
    create_atoms 2 single 1.6 7 3.5
Created 1 atoms
  using lattice units in orthogonal box = (0 0 0) to (92.831777 92.831777 92.831777)
  create_atoms CPU = 0.000 seconds
    variable x0 equal ${x}
    variable x0 equal 1.6
    variable step equal ${step} + 1
    variable step equal 3 + 1
jump SELF loop_bead
if "${step} > ${N}" then "jump SELF end_inner"
    variable x equal ${x0} + ${dbead}
    variable x equal 1.6 + ${dbead}
    variable x equal 1.6 + 0.2
    variable y equal ${y0} + 1.5*${Ny}
    variable y equal 1 + 1.5*${Ny}
    variable y equal 1 + 1.5*4
    variable z equal ${z0} + 1.5*${Nz}
    variable z equal 2 + 1.5*${Nz}
    variable z equal 2 + 1.5*1
    create_atoms 2 single ${x} ${y} ${z}
    create_atoms 2 single 1.8 ${y} ${z}
    create_atoms 2 single 1.8 7 ${z}
    create_atoms 2 single 1.8 7 3.5
Created 1 atoms
  using lattice units in orthogonal box = (0 0 0) to (92.831777 92.831777 92.831777)
  create_atoms CPU = 0.000 seconds
    variable x0 equal ${x}
    variable x0 equal 1.8
    variable step equal ${step} + 1
    variable step equal 4 + 1
jump SELF loop_bead
if "${step} > ${N}" then "jump SELF end_inner"
    variable x equal ${x0} + ${dbead}
    variable x equal 1.8 + ${dbead}
    variable x equal 1.8 + 0.2
    variable y equal ${y0} + 1.5*${Ny}
    variable y equal 1 + 1.5*${Ny}
    variable y equal 1 + 1.5*4
    variable z equal ${z0} + 1.5*${Nz}
    variable z equal 2 + 1.5*${Nz}
    variable z equal 2 + 1.5*1
    create_atoms 2 single ${x} ${y} ${z}
    create_atoms 2 single 2 ${y} ${z}
    create_atoms 2 single 2 7 ${z}
    create_atoms 2 single 2 7 3.5
Created 1 atoms
  using lattice units in orthogonal box = (0 0 0) to (92.831777 92.831777 92.831777)
  create_atoms CPU = 0.000 seconds
    variable x0 equal ${x}
    variable x0 equal 2
    variable step equal ${step} + 1
    variable step equal 5 + 1
jump SELF loop_bead
if "${step} > ${N}" then "jump SELF end_inner"
    variable x equal ${x0} + ${dbead}
    variable x equal 2 + ${dbead}
    variable x equal 2 + 0.2
    variable y equal ${y0} + 1.5*${Ny}
    variable y equal 1 + 1.5*${Ny}
    variable y equal 1 + 1.5*4
    variable z equal ${z0} + 1.5*${Nz}
    variable z equal 2 + 1.5*${Nz}
    variable z equal 2 + 1.5*1
    create_atoms 2 single ${x} ${y} ${z}
    create_atoms 2 single 2.2 ${y} ${z}
    create_atoms 2 single 2.2 7 ${z}
    create_atoms 2 single 2.2 7 3.5
Created 1 atoms
  using lattice units in orthogonal box = (0 0 0) to (92.831777 92.831777 92.831777)
  create_atoms CPU = 0.000 seconds
    variable x0 equal ${x}
    variable x0 equal 2.2
    variable step equal ${step} + 1
    variable step equal 6 + 1
jump SELF loop_bead
if "${step} > ${N}" then "jump SELF end_inner"
    variable x equal ${x0} + ${dbead}
    variable x equal 2.2 + ${dbead}
    variable x equal 2.2 + 0.2
    variable y equal ${y0} + 1.5*${Ny}
    variable y equal 1 + 1.5*${Ny}
    variable y equal 1 + 1.5*4
    variable z equal ${z0} + 1.5*${Nz}
    variable z equal 2 + 1.5*${Nz}
    variable z equal 2 + 1.5*1
    create_atoms 2 single ${x} ${y} ${z}
    create_atoms 2 single 2.4 ${y} ${z}
    create_atoms 2 single 2.4 7 ${z}
    create_atoms 2 single 2.4 7 3.5
Created 1 atoms
  using lattice units in orthogonal box = (0 0 0) to (92.831777 92.831777 92.831777)
  create_atoms CPU = 0.000 seconds
    variable x0 equal ${x}
    variable x0 equal 2.4
    variable step equal ${step} + 1
    variable step equal 7 + 1
jump SELF loop_bead
if "${step} > ${N}" then "jump SELF end_inner"
    variable x equal ${x0} + ${dbead}
    variable x equal 2.4 + ${dbead}
    variable x equal 2.4 + 0.2
    variable y equal ${y0} + 1.5*${Ny}
    variable y equal 1 + 1.5*${Ny}
    variable y equal 1 + 1.5*4
    variable z equal ${z0} + 1.5*${Nz}
    variable z equal 2 + 1.5*${Nz}
    variable z equal 2 + 1.5*1
    create_atoms 2 single ${x} ${y} ${z}
    create_atoms 2 single 2.6 ${y} ${z}
    create_atoms 2 single 2.6 7 ${z}
    create_atoms 2 single 2.6 7 3.5
Created 1 atoms
  using lattice units in orthogonal box = (0 0 0) to (92.831777 92.831777 92.831777)
  create_atoms CPU = 0.000 seconds
[...]
367000  ekin = 43.2166249487313 | epot = 0.181206513670845 | erot = 43.0494137860105 | ebond = 1.77618046174267 | etot = 88.2234257101553
368000  ekin = 43.8050252426755 | epot = 0.122248638341526 | erot = 41.9938780840236 | ebond = 1.78658362054213 | etot = 87.7077355855828
369000  ekin = 41.6904212466089 | epot = 0.143923094549335 | erot = 41.6938310742721 | ebond = 1.71833497484687 | etot = 85.2465103902771
370000  ekin = 42.8012680016879 | epot = 0.0815796645911343 | erot = 41.7790179894543 | ebond = 1.83784070834504 | etot = 86.4997063640784
371000  ekin = 42.7513146404521 | epot = 0.300692107581406 | erot = 41.2937243027833 | ebond = 1.61674445247784 | etot = 85.9624755032946
372000  ekin = 43.1754346115842 | epot = 0.151726742047745 | erot = 42.6845856937859 | ebond = 1.71956416018736 | etot = 87.7313112076052
373000  ekin = 41.7140045400643 | epot = 0.299227760870887 | erot = 42.5227297402141 | ebond = 1.71255144212821 | etot = 86.2485134832775
374000  ekin = 42.4366646714783 | epot = 0.234735095971183 | erot = 42.2483839073948 | ebond = 1.46385245685851 | etot = 86.3836361317028
375000  ekin = 42.2054808156334 | epot = 0.185149804533766 | erot = 42.5565847943683 | ebond = 1.75374193168787 | etot = 86.7009573462234
376000  ekin = 41.4880383152878 | epot = 0.122701301829948 | erot = 43.086691294474 | ebond = 1.87255189351499 | etot = 86.5699828051068
377000  ekin = 42.9537958141595 | epot = 0.160778167596511 | erot = 42.6925607666424 | ebond = 1.85145007728348 | etot = 87.6585848256819
378000  ekin = 43.4524355609562 | epot = 0.0967606462874985 | erot = 41.6584096367453 | ebond = 1.86027849657609 | etot = 87.067884340565
379000  ekin = 43.7254078331976 | epot = 0.0829545788115657 | erot = 42.2612069545653 | ebond = 1.86901838238136 | etot = 87.9385877489558
380000  ekin = 44.5964850715654 | epot = 0.170419436624247 | erot = 41.8449821584771 | ebond = 1.99611613640373 | etot = 88.6080028030704
381000  ekin = 44.0911066796481 | epot = 0.164144335856682 | erot = 41.4822325141789 | ebond = 1.80474557564408 | etot = 87.5422291053277
382000  ekin = 42.7651762666771 | epot = 0.174982372520486 | erot = 42.5811281313315 | ebond = 1.85168013347002 | etot = 87.3729669039991
383000  ekin = 42.3271760764571 | epot = 0.0918228599927006 | erot = 42.5392318583125 | ebond = 1.65533327985563 | etot = 86.6135640746179
384000  ekin = 42.5615729026515 | epot = 0.163772217874046 | erot = 41.9657637555942 | ebond = 1.69541795109175 | etot = 86.3865268272115
385000  ekin = 41.9858566597167 | epot = 0.112174573145344 | erot = 43.2600419852998 | ebond = 1.46894218887478 | etot = 86.8270154070367
386000  ekin = 41.811486403538 | epot = 0.158128795027738 | erot = 42.6564664618665 | ebond = 1.55570269755643 | etot = 86.1817843579887
387000  ekin = 41.8186598491957 | epot = 0.050065112331357 | erot = 43.0697297209499 | ebond = 1.80906002343142 | etot = 86.7475147059084
388000  ekin = 41.5436370388071 | epot = 0.143484531518124 | erot = 42.8083440620874 | ebond = 1.65757922400793 | etot = 86.1530448564206
389000  ekin = 42.3355294610764 | epot = 0.135866196167227 | erot = 43.0219673205538 | ebond = 1.47588146482535 | etot = 86.9692444426228
390000  ekin = 41.720588757915 | epot = 0.122430705367855 | erot = 42.0344494917941 | ebond = 1.50057606857523 | etot = 85.3780450236522
391000  ekin = 41.8475555275272 | epot = 0.184155134179652 | erot = 41.6218419255821 | ebond = 1.69418928428609 | etot = 85.3477418715751
392000  ekin = 43.203392566922 | epot = 0.161582540129699 | erot = 42.2099561402565 | ebond = 1.68045343532205 | etot = 87.2553846826303
393000  ekin = 43.249447103273 | epot = 0.219531355060885 | erot = 42.4407431226282 | ebond = 1.82189989080968 | etot = 87.7316214717717
394000  ekin = 42.1523594913791 | epot = 0.159723242915715 | erot = 43.1355744961911 | ebond = 1.7540697094438 | etot = 87.2017269399298
395000  ekin = 42.7502865383809 | epot = 0.118161676064793 | erot = 41.4232074353902 | ebond = 1.59170402006604 | etot = 85.883359669902
396000  ekin = 42.4944126464525 | epot = 0.21979201990606 | erot = 43.0107429774329 | ebond = 1.59964258038971 | etot = 87.3245902241811
397000  ekin = 44.2343207412232 | epot = 0.144013338774758 | erot = 42.3676592047756 | ebond = 1.7328858637255 | etot = 88.478879148499
398000  ekin = 43.830366200385 | epot = 0.142058028246972 | erot = 42.0999578256991 | ebond = 1.77695086600045 | etot = 87.8493329203315
399000  ekin = 44.0920427394114 | epot = 0.173166614625829 | erot = 42.7132702006713 | ebond = 1.87288345493046 | etot = 88.851363009639
400000  ekin = 42.8990159724984 | epot = 0.10391644438578 | erot = 41.3677022260915 | ebond = 1.76714954962481 | etot = 86.1377841926005
401000  ekin = 43.523494234136 | epot = 0.194240931358936 | erot = 42.0156170800609 | ebond = 1.55845708259696 | etot = 87.2918093281528
402000  ekin = 42.797713570979 | epot = 0.116031283531508 | erot = 42.8719414984219 | ebond = 1.61182174672418 | etot = 87.3975080996566
403000  ekin = 41.9029328120733 | epot = 0.152530938051178 | erot = 42.5180003904961 | ebond = 1.72618203725471 | etot = 86.2996461778753
404000  ekin = 42.597686610572 | epot = 0.125976077639023 | erot = 42.9273446048404 | ebond = 1.85367348380535 | etot = 87.5046807768568
405000  ekin = 41.4718341864966 | epot = 0.124605997743856 | erot = 42.4062144626772 | ebond = 1.75299359031466 | etot = 85.7556482372323
406000  ekin = 43.6183078950275 | epot = 0.209341045529548 | erot = 42.3127266861926 | ebond = 1.82304695068568 | etot = 87.9634225774353
407000  ekin = 42.3643219939546 | epot = 0.218296670724665 | erot = 42.2502531298405 | ebond = 1.70334025887586 | etot = 86.5362120533956
408000  ekin = 41.2020592868403 | epot = 0.140300335597389 | erot = 42.2332581552752 | ebond = 1.73531463461327 | etot = 85.3109324123262
409000  ekin = 41.5864969818773 | epot = 0.134899905054996 | erot = 41.8355235234739 | ebond = 1.75103067381743 | etot = 85.3079510842236
410000  ekin = 42.5918424465485 | epot = 0.106514640395885 | erot = 41.5041300507863 | ebond = 1.78354997577593 | etot = 85.9860371135066
411000  ekin = 42.2725260204817 | epot = 0.157523081166728 | erot = 42.8982171175648 | ebond = 1.64127838418984 | etot = 86.9695446034031
412000  ekin = 41.8746316138639 | epot = 0.112708923244276 | erot = 41.7376737994786 | ebond = 1.93576988283336 | etot = 85.6607842194202
413000  ekin = 41.757457774048 | epot = 0.0942741669731625 | erot = 43.0431997652943 | ebond = 1.8999812918291 | etot = 86.7949129981445
414000  ekin = 42.3595036201406 | epot = 0.146927765860376 | erot = 42.5590794899734 | ebond = 1.6669061921248 | etot = 86.7324170680992
415000  ekin = 43.6870012046307 | epot = 0.267129654978039 | erot = 43.0323758121359 | ebond = 1.6237652285296 | etot = 88.6102719002743
416000  ekin = 43.2918911728918 | epot = 0.200000239294355 | erot = 41.7746645022132 | ebond = 1.7919465435371 | etot = 87.0585024579364
417000  ekin = 42.8446791689419 | epot = 0.152347183365843 | erot = 41.7521586107299 | ebond = 1.55078758992211 | etot = 86.2999725529598
418000  ekin = 42.5675954308985 | epot = 0.196456719245704 | erot = 42.7895181454535 | ebond = 1.63396995472931 | etot = 87.187540250327
419000  ekin = 41.9932701889434 | epot = 0.244137227777036 | erot = 42.8208750698846 | ebond = 1.64369306766898 | etot = 86.701975554274
420000  ekin = 42.2661905772614 | epot = 0.178804810357803 | erot = 41.6624642627797 | ebond = 1.46832755416059 | etot = 85.5757872045594
421000  ekin = 42.9337432503663 | epot = 0.161359390517974 | erot = 41.9901191274302 | ebond = 1.54000565838898 | etot = 86.6252274267035
422000  ekin = 42.3147530676524 | epot = 0.2179147217025 | erot = 42.6542287472547 | ebond = 1.55604700295063 | etot = 86.7429435395602
423000  ekin = 42.2427359948997 | epot = 0.134823235920998 | erot = 42.0613357332157 | ebond = 1.46361058728618 | etot = 85.9025055513226
424000  ekin = 41.7135850365582 | epot = 0.133512464407468 | erot = 41.343847468082 | ebond = 1.74461576388151 | etot = 84.9355607329291
425000  ekin = 42.5699515901706 | epot = 0.168601310055158 | erot = 41.7890721455813 | ebond = 1.8212322530152 | etot = 86.3488572988222
426000  ekin = 43.010257215186 | epot = 0.126661620612808 | erot = 41.2400040159976 | ebond = 1.8621737165532 | etot = 86.2390965683496
427000  ekin = 42.8803459048726 | epot = 0.129835951136997 | erot = 42.2258686971771 | ebond = 1.7395448606236 | etot = 86.9755954138103
428000  ekin = 41.8645351216851 | epot = 0.122673388506213 | erot = 42.715650873585 | ebond = 1.63334463443057 | etot = 86.3362040182068
429000  ekin = 41.6245546005591 | epot = 0.115553474195719 | erot = 42.510912687899 | ebond = 1.52254752204908 | etot = 85.7735682847029
430000  ekin = 41.5383821780491 | epot = 0.0712279447789457 | erot = 42.540012957844 | ebond = 1.72058880749828 | etot = 85.8702118881703
431000  ekin = 42.8244946047306 | epot = 0.101488753355925 | erot = 41.8501334919342 | ebond = 1.59615740722637 | etot = 86.372274257247
432000  ekin = 41.8918166606251 | epot = 0.332973450746946 | erot = 43.3303441312553 | ebond = 1.54197603765351 | etot = 87.0971102802809
433000  ekin = 42.1872820738359 | epot = 0.10462593507943 | erot = 43.0364689848661 | ebond = 1.81843278003966 | etot = 87.1468097738211
434000  ekin = 42.5524862871525 | epot = 0.129987615925857 | erot = 42.7242109531855 | ebond = 1.57904394755827 | etot = 86.9857288038221
435000  ekin = 43.2052560582784 | epot = 0.139192176257867 | erot = 42.5895552787841 | ebond = 1.68990799672377 | etot = 87.6239115100441
436000  ekin = 42.7918786146429 | epot = 0.175661352916729 | erot = 42.1800730479219 | ebond = 1.76450202860211 | etot = 86.9121150440837
437000  ekin = 42.5403560179581 | epot = 0.131670370960054 | erot = 42.9524074380697 | ebond = 1.84843557435708 | etot = 87.472869401345
438000  ekin = 42.5464185453151 | epot = 0.173732767267981 | erot = 42.6512009684425 | ebond = 1.85611506167871 | etot = 87.2274673427043
439000  ekin = 42.2909764658606 | epot = 0.220893829796874 | erot = 42.6536420415958 | ebond = 1.93411354477728 | etot = 87.0996258820306
440000  ekin = 41.8040458197039 | epot = 0.111762968359809 | erot = 42.7083964451708 | ebond = 1.77181587347757 | etot = 86.3960211067121
441000  ekin = 41.695289476529 | epot = 0.116214566028585 | erot = 42.7921645063977 | ebond = 1.8854162080595 | etot = 86.4890847570148
442000  ekin = 41.7176148371357 | epot = 0.154185894355873 | erot = 41.2103519567363 | ebond = 1.83209856642229 | etot = 84.9142512546502
443000  ekin = 41.951801733192 | epot = 0.174272761865551 | erot = 42.754084219934 | ebond = 1.81685698911971 | etot = 86.6970157041113
444000  ekin = 42.9521417840674 | epot = 0.166607482631058 | erot = 42.6362641740693 | ebond = 1.87114533957034 | etot = 87.6261587803381
445000  ekin = 42.3279700236929 | epot = 0.146579258779784 | erot = 42.8336921388672 | ebond = 1.75377201113628 | etot = 87.0620134324761
446000  ekin = 41.7836338749327 | epot = 0.209226682975226 | erot = 41.8850943728157 | ebond = 1.84750701789149 | etot = 85.7254619486151
447000  ekin = 41.7621614437121 | epot = 0.167617266388414 | erot = 42.4772563019614 | ebond = 1.83054026507531 | etot = 86.2375752771372
448000  ekin = 43.3562221100659 | epot = 0.227129261498529 | erot = 43.2314567147592 | ebond = 1.93491413049918 | etot = 88.7497222168227
449000  ekin = 42.9007147762144 | epot = 0.178927501378876 | erot = 42.0343631689809 | ebond = 1.75764599848614 | etot = 86.8716514450603
450000  ekin = 43.1433714290571 | epot = 0.134432705717773 | erot = 42.3823633754083 | ebond = 1.86835638837256 | etot = 87.5285238985558
451000  ekin = 42.5678233286739 | epot = 0.119968711806098 | erot = 42.5076119332458 | ebond = 1.76088547246358 | etot = 86.9562894461894
452000  ekin = 42.9194747038398 | epot = 0.149457116019762 | erot = 43.1759605678985 | ebond = 1.83612232939003 | etot = 88.0810147171481
453000  ekin = 42.1420809292659 | epot = 0.113627967744996 | erot = 41.5718569992404 | ebond = 1.81166406366645 | etot = 85.6392299599178
454000  ekin = 42.5697067134632 | epot = 0.163970397976558 | erot = 43.3823324135771 | ebond = 1.73427488865287 | etot = 87.8502844136697
455000  ekin = 43.6667458391413 | epot = 0.158273847481225 | erot = 43.369604565109 | ebond = 1.77412266621876 | etot = 88.9687469179503
456000  ekin = 41.8977114586851 | epot = 0.24383615522388 | erot = 42.6782713971526 | ebond = 1.82736179997192 | etot = 86.6471808110334
457000  ekin = 43.1539203258138 | epot = 0.15784496919951 | erot = 42.7057032378968 | ebond = 1.82073738270182 | etot = 87.8382059156119
458000  ekin = 43.4624936669621 | epot = 0.136917039849545 | erot = 41.8593224383896 | ebond = 1.83193663547468 | etot = 87.2906697806759
459000  ekin = 43.1693862643512 | epot = 0.208979591911638 | erot = 42.235845622702 | ebond = 1.80920151275072 | etot = 87.4234129917156
460000  ekin = 42.3826811734325 | epot = 0.127378847200076 | erot = 42.0250509467631 | ebond = 1.98129537138651 | etot = 86.5164063387822
461000  ekin = 41.8453654936567 | epot = 0.101018851922311 | erot = 41.5933431051886 | ebond = 1.96788935680452 | etot = 85.5076168075721
462000  ekin = 42.1118351592316 | epot = 0.132082704804814 | erot = 44.0673922484677 | ebond = 1.70363116447224 | etot = 88.0149412769764
463000  ekin = 43.086079953646 | epot = 0.155688176551265 | erot = 42.8464770772108 | ebond = 1.85649687835756 | etot = 87.9447420857656
464000  ekin = 42.445453796995 | epot = 0.254751268049004 | erot = 41.248071363936 | ebond = 1.99264014074516 | etot = 85.9409165697252
465000  ekin = 43.2636676985103 | epot = 0.181966331867021 | erot = 43.0787009976141 | ebond = 2.01807965756143 | etot = 88.5424146855528
466000  ekin = 43.2511073835393 | epot = 0.122949226189896 | erot = 41.7800326016083 | ebond = 1.69408242266122 | etot = 86.8481716339988
467000  ekin = 42.5592039751652 | epot = 0.180597028220499 | erot = 42.7882400356403 | ebond = 1.54848623218414 | etot = 87.0765272712101
468000  ekin = 41.9013176190468 | epot = 0.199646641337302 | erot = 42.2449933314113 | ebond = 1.60411971555714 | etot = 85.9500773073526
469000  ekin = 41.6943223051787 | epot = 0.162521321646859 | erot = 41.705912252409 | ebond = 1.80494970173984 | etot = 85.3677055809745
470000  ekin = 42.8650417357213 | epot = 0.177416806283734 | erot = 42.8645004067242 | ebond = 1.64890731271934 | etot = 87.5558662614485
471000  ekin = 42.426102119334 | epot = 0.166428977843226 | erot = 42.163839447373 | ebond = 1.57739666971852 | etot = 86.3337672142687
472000  ekin = 42.3473803449447 | epot = 0.168470013847337 | erot = 42.6301904614566 | ebond = 1.64430646697007 | etot = 86.7903472872188
473000  ekin = 42.9291429169354 | epot = 0.180855907124783 | erot = 42.1258675758979 | ebond = 1.6140425652078 | etot = 86.8499089651659
474000  ekin = 43.3297900747302 | epot = 0.194986528798453 | erot = 42.631247587391 | ebond = 1.66717741871827 | etot = 87.823201609638
475000  ekin = 42.9929838746104 | epot = 0.13009603277553 | erot = 42.2077304378933 | ebond = 1.86423008765622 | etot = 87.1950404329354
476000  ekin = 42.0536767645965 | epot = 0.19373157452659 | erot = 41.9736070382559 | ebond = 1.90722585434612 | etot = 86.1282412317251
477000  ekin = 42.6015344620667 | epot = 0.0999986460239274 | erot = 42.9144299607101 | ebond = 1.63961681391674 | etot = 87.2555798827174
478000  ekin = 42.8075416259191 | epot = 0.210904139660564 | erot = 41.8113341894715 | ebond = 1.69192572272271 | etot = 86.5217056777739
479000  ekin = 42.6307745944365 | epot = 0.192833875098337 | erot = 43.5728979080891 | ebond = 1.93944059927423 | etot = 88.3359469768982
480000  ekin = 41.6725501225563 | epot = 0.110587968949306 | erot = 43.655714122359 | ebond = 1.90507609650398 | etot = 87.3439283103686
481000  ekin = 42.048243631562 | epot = 0.157999987600582 | erot = 42.1076091645233 | ebond = 1.96689274135894 | etot = 86.2807455250448
482000  ekin = 41.9667872134608 | epot = 0.0926809172470937 | erot = 41.1950640290119 | ebond = 1.87249155326339 | etot = 85.1270237129832
483000  ekin = 43.0323787087946 | epot = 0.185082983563258 | erot = 42.0413154110238 | ebond = 1.68842467088613 | etot = 86.9472017742678
484000  ekin = 42.7558688892657 | epot = 0.187039573931778 | erot = 42.4168017490634 | ebond = 1.60779120240047 | etot = 86.9675014146614
485000  ekin = 41.6961393141833 | epot = 0.140722822846454 | erot = 42.3351499352673 | ebond = 1.75104790497412 | etot = 85.9230599772712
486000  ekin = 42.1843804609089 | epot = 0.209764097384629 | erot = 43.5100122974089 | ebond = 1.85799127682938 | etot = 87.7621481325318
487000  ekin = 42.4840277778977 | epot = 0.185384780057017 | erot = 41.392097853259 | ebond = 1.54964762557165 | etot = 85.6111580367853
488000  ekin = 41.8066557310463 | epot = 0.121379052303501 | erot = 42.0551757574707 | ebond = 1.65463417770691 | etot = 85.6378447185274
489000  ekin = 41.8906828270157 | epot = 0.183191840946537 | erot = 42.5713675074489 | ebond = 1.67801615328979 | etot = 86.3232583287009
490000  ekin = 41.1208725596235 | epot = 0.177558518342158 | erot = 42.2765544219958 | ebond = 1.71986185164991 | etot = 85.2948473516114
491000  ekin = 41.5391970934942 | epot = 0.110225125615777 | erot = 41.7648514256571 | ebond = 1.85631824237425 | etot = 85.2705918871413
492000  ekin = 42.9253156874905 | epot = 0.107047980448899 | erot = 42.7098621075434 | ebond = 1.73007647154337 | etot = 87.4723022470262
493000  ekin = 42.8476350614889 | epot = 0.101044274835036 | erot = 42.6552569276531 | ebond = 1.70041838001743 | etot = 87.3043546439945
494000  ekin = 42.9015159358117 | epot = 0.20359872899777 | erot = 42.1172309972161 | ebond = 1.56143644610546 | etot = 86.7837821081309
495000  ekin = 42.0353085361869 | epot = 0.159783926378219 | erot = 42.9397238719285 | ebond = 1.80485266537198 | etot = 86.9396689998657
496000  ekin = 43.3245244276376 | epot = 0.20416241939435 | erot = 42.9608662713849 | ebond = 1.82528490168583 | etot = 88.3148380201027
497000  ekin = 42.4227212656764 | epot = 0.144674705674861 | erot = 42.5652115423364 | ebond = 1.70475742623566 | etot = 86.8373649399232
498000  ekin = 42.7041803917514 | epot = 0.136770800178156 | erot = 42.0195983211451 | ebond = 1.69336985074791 | etot = 86.5539193638225
499000  ekin = 42.4280863203953 | epot = 0.164948610177086 | erot = 41.0116039291381 | ebond = 1.65851269847778 | etot = 85.2631515581882
500000  ekin = 43.6641881623915 | epot = 0.228132344339802 | erot = 42.7328401612896 | ebond = 1.80231626921937 | etot = 88.4274769372403
    500000   0.010289664    8.0612136e-05  0.00063686087  0.016146515    2.7212333e-05
Loop time of 60.3934 on 2 procs for 500000 steps with 2830 atoms

Performance: 715310.497 tau/day, 8279.057 timesteps/s, 23.430 Matom-step/s
114.8% CPU use with 1 MPI tasks x 2 OpenMP threads

MPI task timing breakdown:
Section |  min time  |  avg time  |  max time  |%varavg| %total
---------------------------------------------------------------
Pair    | 2.9153     | 2.9153     | 2.9153     |   0.0 |  4.83
Bond    | 1.6489     | 1.6489     | 1.6489     |   0.0 |  2.73
Neigh   | 0.2835     | 0.2835     | 0.2835     |   0.0 |  0.47
Comm    | 4.084      | 4.084      | 4.084      |   0.0 |  6.76
Output  | 2.8826     | 2.8826     | 2.8826     |   0.0 |  4.77
Modify  | 10.223     | 10.223     | 10.223     |   0.0 | 16.93
Other   |            | 38.36      |            |       | 63.51

Nlocal:           2830 ave        2830 max        2830 min
Histogram: 1 0 0 0 0 0 0 0 0 0
Nghost:            288 ave         288 max         288 min
Histogram: 1 0 0 0 0 0 0 0 0 0
Neighs:              0 ave           0 max           0 min
Histogram: 1 0 0 0 0 0 0 0 0 0
FullNghs:         4186 ave        4186 max        4186 min
Histogram: 1 0 0 0 0 0 0 0 0 0

Total # of neighbors = 4186
Ave neighs/atom = 1.4791519
Ave special neighs/atom = 0.71236749
Neighbor list builds = 247
Dangerous builds = 0

write_data data_out.* nocoeff
System init for write_data ...
Generated 0 of 1 mixed pair_coeff terms from geometric mixing rule

Total wall time: 0:01:00
