LAMMPS (29 Aug 2024 - Development - patch_27Jun2024-1419-g2f775f79a6-modified)
KOKKOS mode with Kokkos version 4.3.1 is enabled (../kokkos.cpp:72)
WARNING: Atom style hybrid defines both, per-type and per-atom masses; both must be set, but only per-atom masses will be used (../atom_vec_hybrid.cpp:132)
Reading data file ...
  orthogonal box = (-20 -20 -20) to (20 20 20)
  1 by 2 by 2 MPI processor grid
  reading atoms ...
  16 atoms
  reading velocities ...
  16 velocities
  scanning bonds ...
  1 = max bonds/atom
  16 ellipsoids
  orthogonal box = (-20 -20 -20) to (20 20 20)
  1 by 2 by 2 MPI processor grid
  reading bonds ...
  13 bonds
Finding 1-2 1-3 1-4 neighbors ...
  special bond factors lj:    0        0        0       
  special bond factors coul:  0        0        0       
     2 = max # of 1-2 neighbors
     2 = max # of 1-3 neighbors
     4 = max # of 1-4 neighbors
     6 = max # of special neighbors
  special bonds CPU = 0.003 seconds
  read_data CPU = 0.017 seconds
Setting atom values ...
  16 settings made for mass
16 atoms in group all
Finding 1-2 1-3 1-4 neighbors ...
  special bond factors lj:    0        1        1       
  special bond factors coul:  0        0        0       
     2 = max # of 1-2 neighbors
     2 = max # of 1-3 neighbors
     4 = max # of 1-4 neighbors
     6 = max # of special neighbors
  special bonds CPU = 0.001 seconds

CITE-CITE-CITE-CITE-CITE-CITE-CITE-CITE-CITE-CITE-CITE-CITE-CITE

Your simulation uses code contributions which should be cited:
- Type Label Framework: https://doi.org/10.1021/acs.jpcb.3c08419
The log file lists these citations in BibTeX format.

CITE-CITE-CITE-CITE-CITE-CITE-CITE-CITE-CITE-CITE-CITE-CITE-CITE

Generated 0 of 6 mixed pair_coeff terms from geometric mixing rule
Neighbor list info ...
  update: every = 1 steps, delay = 0 steps, check = yes
  max neighbors/atom: 2000, page size: 100000
  master list distance cutoff = 2.9560004
  ghost atom cutoff = 3.8
  binsize = 1.4780002, bins = 28 28 28
  2 neighbor lists, perpetual/occasional/extra = 2 0 0
  (1) pair oxdna/excv/kk, perpetual
      attributes: half, newton on, kokkos_device
      pair build: half/bin/newton/kk/device
      stencil: half/bin/3d
      bin: kk/device
  (2) pair oxdna/stk/kk, perpetual, copy from (1)
      attributes: half, newton on, kokkos_device
      pair build: copy/kk/device
      stencil: none
      bin: none
Setting up Verlet run ...
  Unit style    : lj
  Current step  : 0
  Time step     : 1e-05
0  ekin = 2.70475393009871 |  erot = 2.80172072918779 | epot = -14.9566687452227 | ebond = BLANK | eexcv = 0 | estk = -15.2193008759654 | etot = -9.45019408593623
Per MPI rank memory allocation (min/avg/max) = 6.864 | 6.864 | 6.864 Mbytes
   Step          Temp          E_pair         E_mol          TotEng         Press          Volume    
         0   0.12021129    -0.9512063      0.016414508   -0.76574468    -6.9491471e-05  64000        
1000  ekin = 2.63696678269933 |  erot = 2.76640533948546 | epot = -14.8535662080103 | ebond = BLANK | eexcv = 0 | estk = -15.113803994329 | etot = -9.45019408582551
2000  ekin = 2.56256437021242 |  erot = 2.72409972868821 | epot = -14.7368581845725 | ebond = BLANK | eexcv = 0 | estk = -14.9972480009836 | etot = -9.45019408567191
3000  ekin = 2.48312762620338 |  erot = 2.67573103589085 | epot = -14.609052747565 | ebond = BLANK | eexcv = 0 | estk = -14.8718350539106 | etot = -9.45019408547076
4000  ekin = 2.40061126561716 |  erot = 2.62257917109181 | epot = -14.4733845219338 | ebond = BLANK | eexcv = 0 | estk = -14.7404577893899 | etot = -9.45019408522479
5000  ekin = 2.31733704810778 |  erot = 2.5662260627506 | epot = -14.3337571958053 | ebond = BLANK | eexcv = 0 | estk = -14.606654338212 | etot = -9.45019408494691
6000  ekin = 2.23589912231014 |  erot = 2.50843885331532 | epot = -14.1945320602871 | ebond = BLANK | eexcv = 0 | estk = -14.4744090298916 | etot = -9.45019408466159
7000  ekin = 2.15896932233538 |  erot = 2.45098734190379 | epot = -14.0601507486413 | ebond = BLANK | eexcv = 0 | estk = -14.3477864211222 | etot = -9.45019408440217
8000  ekin = 2.08901977576125 |  erot = 2.39541739019383 | epot = -13.9346312501595 | ebond = BLANK | eexcv = 0 | estk = -14.2304373594261 | etot = -9.45019408420438
9000  ekin = 2.02801444733973 |  erot = 2.34282476114521 | epot = -13.8210332925824 | ebond = BLANK | eexcv = 0 | estk = -14.1250730545984 | etot = -9.45019408409745
10000  ekin = 1.97714562715295 |  erot = 2.29368783270568 | epot = -13.7210275439535 | ebond = BLANK | eexcv = 0 | estk = -14.0330417501363 | etot = -9.45019408409482
11000  ekin = 1.93669106396386 |  erot = 2.24781323610987 | epot = -13.6346983842627 | ebond = BLANK | eexcv = 0 | estk = -13.9541381043377 | etot = -9.45019408418895
12000  ekin = 1.90603721397179 |  erot = 2.20442279332861 | epot = -13.5606540916527 | ebond = BLANK | eexcv = 0 | estk = -13.8867195993849 | etot = -9.45019408435229
13000  ekin = 1.88386406479713 |  erot = 2.16237053727513 | epot = -13.4964286866168 | ebond = BLANK | eexcv = 0 | estk = -13.8281146648531 | etot = -9.45019408454455
14000  ekin = 1.86843869114453 |  erot = 2.1204403492894 | epot = -13.4390731251569 | ebond = BLANK | eexcv = 0 | estk = -13.7752204624931 | etot = -9.45019408472301
15000  ekin = 1.85793868238602 |  erot = 2.07765321423554 | epot = -13.385785981474 | ebond = BLANK | eexcv = 0 | estk = -13.7251404092756 | etot = -9.45019408485245
16000  ekin = 1.85073086040225 |  erot = 2.03351558898737 | epot = -13.3344405343012 | ebond = BLANK | eexcv = 0 | estk = -13.6757178984086 | etot = -9.45019408491154
17000  ekin = 1.84555797393945 |  erot = 1.9881630768984 | epot = -13.2839151357323 | ebond = BLANK | eexcv = 0 | estk = -13.62587226978 | etot = -9.45019408489443
18000  ekin = 1.84162054399805 |  erot = 1.94238505589807 | epot = -13.2341996847043 | ebond = BLANK | eexcv = 0 | estk = -13.5757087677623 | etot = -9.45019408480818
19000  ekin = 1.83856847725443 |  erot = 1.89754395362263 | epot = -13.186306515546 | ebond = BLANK | eexcv = 0 | estk = -13.5264296534264 | etot = -9.45019408466897
20000  ekin = 1.8364308295377 |  erot = 1.85542006887901 | epot = -13.1420449829141 | ebond = BLANK | eexcv = 0 | estk = -13.4801047870734 | etot = -9.4501940844974
21000  ekin = 1.83551326923454 |  erot = 1.81801796527169 | epot = -13.1037253188212 | ebond = BLANK | eexcv = 0 | estk = -13.4393666888458 | etot = -9.45019408431497
22000  ekin = 1.83628651628119 |  erot = 1.78736658217117 | epot = -13.0738471825934 | ebond = BLANK | eexcv = 0 | estk = -13.4070854750505 | etot = -9.450194084141
23000  ekin = 1.83928067658992 |  erot = 1.76533678182669 | epot = -13.0548115424083 | ebond = BLANK | eexcv = 0 | estk = -13.3860628703276 | etot = -9.45019408399172
24000  ekin = 1.8449933922656 |  erot = 1.75349080450406 | epot = -13.048678280649 | ebond = BLANK | eexcv = 0 | estk = -13.3787687617424 | etot = -9.45019408387931
25000  ekin = 1.85381530468555 |  erot = 1.75297023956081 | epot = -13.0569796280588 | ebond = BLANK | eexcv = 0 | estk = -13.3871318261719 | etot = -9.45019408381244
26000  ekin = 1.8565726992083 |  erot = 1.76512771569686 | epot = -13.0718944964978 | ebond = BLANK | eexcv = 0.00860481179184776 | estk = -13.4122611761712 | etot = -9.45019408159263
27000  ekin = 1.85202980977752 |  erot = 1.79428329709143 | epot = -13.0965071844925 | ebond = BLANK | eexcv = 0.0216458573646223 | estk = -13.452922221435 | etot = -9.45019407762354
28000  ekin = 1.88145846566533 |  erot = 1.83546325771708 | epot = -13.167115807255 | ebond = BLANK | eexcv = 0.00143735506937696 | estk = -13.5077314564376 | etot = -9.45019408387257
29000  ekin = 1.90443395555576 |  erot = 1.8772163080822 | epot = -13.2318443430029 | ebond = BLANK | eexcv = 0 | estk = -13.5775127494247 | etot = -9.45019407936492
30000  ekin = 1.92878128173649 |  erot = 1.92826643433972 | epot = -13.3072417955796 | ebond = BLANK | eexcv = 0 | estk = -13.6617952171044 | etot = -9.45019407950337
31000  ekin = 1.95488523421888 |  erot = 1.98759053316997 | epot = -13.3926698470655 | ebond = BLANK | eexcv = 0 | estk = -13.7584454812647 | etot = -9.45019407967668
32000  ekin = 1.98203495453297 |  erot = 2.05332680671005 | epot = -13.4855558411207 | ebond = BLANK | eexcv = 0 | estk = -13.8647174245358 | etot = -9.45019407987765
33000  ekin = 2.00939474430237 |  erot = 2.12336277068858 | epot = -13.5829515950881 | ebond = BLANK | eexcv = 0 | estk = -13.9773798582092 | etot = -9.4501940800971
34000  ekin = 2.03604885546362 |  erot = 2.19543232434982 | epot = -13.6816752601382 | ebond = BLANK | eexcv = 0 | estk = -14.0928672568428 | etot = -9.45019408032477
35000  ekin = 2.0610582273737 |  erot = 2.26722132645821 | epot = -13.7784736343814 | ebond = BLANK | eexcv = 0 | estk = -14.2074550229537 | etot = -9.45019408054954
36000  ekin = 2.08352810460957 |  erot = 2.33647599557027 | epot = -13.8701981809392 | ebond = BLANK | eexcv = 0 | estk = -14.3174520028247 | etot = -9.45019408075931
37000  ekin = 2.10268635075437 |  erot = 2.4011086774366 | epot = -13.9539891091328 | ebond = BLANK | eexcv = 0 | estk = -14.4194039674497 | etot = -9.45019408094179
38000  ekin = 2.11797381584551 |  erot = 2.45929734113693 | epot = -14.0274652380666 | ebond = BLANK | eexcv = 0 | estk = -14.5103050081034 | etot = -9.45019408108418
39000  ekin = 2.1291496270679 |  erot = 2.50957843797351 | epot = -14.0889221462135 | ebond = BLANK | eexcv = 0 | estk = -14.5878184655432 | etot = -9.45019408117207
40000  ekin = 2.13641417185385 |  erot = 2.55093638945638 | epot = -14.1375446424998 | ebond = BLANK | eexcv = 0 | estk = -14.6505124794067 | etot = -9.45019408118955
41000  ekin = 2.14054807947776 |  erot = 2.58289454475629 | epot = -14.1736367053535 | ebond = BLANK | eexcv = 0 | estk = -14.6981123834819 | etot = -9.45019408111941
42000  ekin = 2.14305316012825 |  erot = 2.60560833335049 | epot = -14.1988555744253 | ebond = BLANK | eexcv = 0 | estk = -14.7317558553201 | etot = -9.45019408094661
43000  ekin = 2.14625882853286 |  erot = 2.61994810914751 | epot = -14.216401018345 | ebond = BLANK | eexcv = 0 | estk = -14.7542013128333 | etot = -9.45019408066466
44000  ekin = 2.1533286005343 |  erot = 2.62753703304349 | epot = -14.2310597138641 | ebond = BLANK | eexcv = 0 | estk = -14.7698892416673 | etot = -9.4501940802863
45000  ekin = 2.16808040967326 |  erot = 2.63068668584438 | epot = -14.2489611753709 | ebond = BLANK | eexcv = 0 | estk = -14.7847128426417 | etot = -9.4501940798533
46000  ekin = 2.19454759394796 |  erot = 2.63216837710335 | epot = -14.2769100504916 | ebond = BLANK | eexcv = 0 | estk = -14.8053627747793 | etot = -9.45019407944025
47000  ekin = 2.23627850799764 |  erot = 2.63479243026052 | epot = -14.3212650174011 | ebond = BLANK | eexcv = 0 | estk = -14.8382159556592 | etot = -9.45019407914294
48000  ekin = 2.29549712145332 |  erot = 2.6408462032228 | epot = -14.3865374037277 | ebond = BLANK | eexcv = 0 | estk = -14.8879408679114 | etot = -9.45019407905159
49000  ekin = 2.37236976446813 |  erot = 2.65153483133152 | epot = -14.4740986750164 | ebond = BLANK | eexcv = 0 | estk = -14.9562075044149 | etot = -9.45019407921676
50000  ekin = 2.46465679842652 |  erot = 2.66661770334786 | epot = -14.5814685814007 | ebond = BLANK | eexcv = 0 | estk = -15.0409726874902 | etot = -9.45019407962635
51000  ekin = 2.56791736385649 |  erot = 2.68438975218258 | epot = -14.7025011962466 | ebond = BLANK | eexcv = 0 | estk = -15.1366573334833 | etot = -9.45019408020748
52000  ekin = 2.67622053434355 |  erot = 2.70202838918488 | epot = -14.8284430043807 | ebond = BLANK | eexcv = 0 | estk = -15.2351898604908 | etot = -9.45019408085224
53000  ekin = 2.76258696546277 |  erot = 2.71506919858321 | epot = -14.9278502605197 | ebond = BLANK | eexcv = 0.0217265466887682 | estk = -15.3276206825541 | etot = -9.45019409647368
54000  ekin = 2.80658284984495 |  erot = 2.72256335797603 | epot = -14.9793402876572 | ebond = BLANK | eexcv = 0.0788412304796488 | estk = -15.4068211540537 | etot = -9.45019407983621
55000  ekin = 2.95372316641809 |  erot = 2.73113359811587 | epot = -15.1350508650772 | ebond = BLANK | eexcv = 0.012290032792881 | estk = -15.4663703708284 | etot = -9.45019410054325
56000  ekin = 3.0390267252902 |  erot = 2.71991431196014 | epot = -15.209135130189 | ebond = BLANK | eexcv = 0 | estk = -15.4993852837499 | etot = -9.45019409293866
57000  ekin = 3.09568630641399 |  erot = 2.69393685411363 | epot = -15.2398172534317 | ebond = BLANK | eexcv = 0 | estk = -15.5032364122503 | etot = -9.45019409290405
58000  ekin = 3.13407274625146 |  erot = 2.65532808124672 | epot = -15.2395949202321 | ebond = BLANK | eexcv = 0 | estk = -15.4790061686771 | etot = -9.45019409273394
59000  ekin = 3.15479428860654 |  erot = 2.60589671012663 | epot = -15.2108850911858 | ebond = BLANK | eexcv = 0 | estk = -15.4299198379261 | etot = -9.45019409245264
60000  ekin = 3.15943789536374 |  erot = 2.54828681799725 | epot = -15.1579188054427 | ebond = BLANK | eexcv = 0 | estk = -15.3609324393275 | etot = -9.45019409208166
61000  ekin = 3.15043072701863 |  erot = 2.48576455348419 | epot = -15.0863893721466 | ebond = BLANK | eexcv = 0 | estk = -15.2783561644964 | etot = -9.45019409164376
62000  ekin = 3.13089265283287 |  erot = 2.42197665327408 | epot = -15.0030633972765 | ebond = BLANK | eexcv = 0 | estk = -15.1894538245789 | etot = -9.4501940911695
63000  ekin = 3.10442657879527 |  erot = 2.36066586927798 | epot = -14.9152865387715 | ebond = BLANK | eexcv = 0 | estk = -15.101930335799 | etot = -9.45019409069824
64000  ekin = 3.07481539984407 |  erot = 2.30534613868758 | epot = -14.8303556288085 | ebond = BLANK | eexcv = 0 | estk = -15.0232937129639 | etot = -9.45019409027682
65000  ekin = 3.04563775105403 |  erot = 2.25896865622839 | epot = -14.7548004972331 | ebond = BLANK | eexcv = 0 | estk = -14.960128498143 | etot = -9.45019408995071
66000  ekin = 3.0198618556921 |  erot = 2.22363487662229 | epot = -14.693690822069 | ebond = BLANK | eexcv = 0 | estk = -14.9173964618912 | etot = -9.45019408975458
67000  ekin = 2.99950579212479 |  erot = 2.2004193322508 | epot = -14.650119214078 | ebond = BLANK | eexcv = 0 | estk = -14.8979154384998 | etot = -9.4501940897024
68000  ekin = 2.9854470608208 |  erot = 2.18934608058991 | epot = -14.624987231195 | ebond = BLANK | eexcv = 0 | estk = -14.9021430304158 | etot = -9.45019408978431
69000  ekin = 2.97742410216367 |  erot = 2.18952248268409 | epot = -14.6171406748192 | ebond = BLANK | eexcv = 0 | estk = -14.9283121365603 | etot = -9.45019408997143
70000  ekin = 2.97421539312547 |  erot = 2.19938993216253 | epot = -14.6237994155113 | ebond = BLANK | eexcv = 0 | estk = -14.9728647529915 | etot = -9.45019409022328
71000  ekin = 2.97393427103881 |  erot = 2.21702323137664 | epot = -14.6411515929154 | ebond = BLANK | eexcv = 0 | estk = -15.0310555372378 | etot = -9.45019409049997
72000  ekin = 2.97435870141946 |  erot = 2.24040975973937 | epot = -14.6649625519275 | ebond = BLANK | eexcv = 0 | estk = -15.0975772684055 | etot = -9.45019409076864
73000  ekin = 2.97322695346021 |  erot = 2.26766281226781 | epot = -14.6910838567353 | ebond = BLANK | eexcv = 0 | estk = -15.1670950178293 | etot = -9.45019409100732
74000  ekin = 2.9684603448299 |  erot = 2.29715621325909 | epot = -14.7158106492928 | ebond = BLANK | eexcv = 0 | estk = -15.2346380471082 | etot = -9.45019409120386
75000  ekin = 2.95830648202739 |  erot = 2.32759427426472 | epot = -14.7360948476452 | ebond = BLANK | eexcv = 0 | estk = -15.2958566099568 | etot = -9.45019409135306
76000  ekin = 2.93001139587827 |  erot = 2.3624384999616 | epot = -14.7426440001838 | ebond = BLANK | eexcv = 0.00698265546308888 | estk = -15.3471579661596 | etot = -9.45019410434392
77000  ekin = 2.80867074597477 |  erot = 2.46746769246275 | epot = -14.7263325316991 | ebond = BLANK | eexcv = 0.0272357035387752 | estk = -15.3846719330051 | etot = -9.45019409326158
78000  ekin = 2.74922621671308 |  erot = 2.54756549797582 | epot = -14.7469858133449 | ebond = BLANK | eexcv = 0 | estk = -15.4065163798658 | etot = -9.45019409865597
79000  ekin = 2.7114826525379 |  erot = 2.57102717990093 | epot = -14.7327039310113 | ebond = BLANK | eexcv = 0 | estk = -15.4143501246041 | etot = -9.45019409857252
80000  ekin = 2.6670584715839 |  erot = 2.5953461170454 | epot = -14.7125986870576 | ebond = BLANK | eexcv = 0 | estk = -15.4093147599047 | etot = -9.45019409842832
81000  ekin = 2.61719419391684 |  erot = 2.62174694345585 | epot = -14.6891352356018 | ebond = BLANK | eexcv = 0 | estk = -15.3934429142213 | etot = -9.45019409822914
82000  ekin = 2.56369149726666 |  erot = 2.6517182220475 | epot = -14.665603817306 | ebond = BLANK | eexcv = 0 | estk = -15.3698662298325 | etot = -9.45019409799185
83000  ekin = 2.50881574320709 |  erot = 2.68682301594678 | epot = -14.6458328569 | ebond = BLANK | eexcv = 0 | estk = -15.3425305061445 | etot = -9.4501940977461
84000  ekin = 2.45508964679078 |  erot = 2.72842895095259 | epot = -14.633712695276 | ebond = BLANK | eexcv = 0 | estk = -15.3157067512372 | etot = -9.45019409753266
85000  ekin = 2.40498266935548 |  erot = 2.77739526590942 | epot = -14.6325720326596 | ebond = BLANK | eexcv = 0 | estk = -15.2933422294529 | etot = -9.45019409739472
86000  ekin = 2.36054856053032 |  erot = 2.83378825874084 | epot = -14.6445309166365 | ebond = BLANK | eexcv = 0 | estk = -15.2783781720322 | etot = -9.45019409736534
87000  ekin = 2.3231054088749 |  erot = 2.89671209613518 | epot = -14.6700116024652 | ebond = BLANK | eexcv = 0 | estk = -15.2722186607412 | etot = -9.45019409745507
88000  ekin = 2.29306040568073 |  erot = 2.96432203929547 | epot = -14.7075765426236 | ebond = BLANK | eexcv = 0 | estk = -15.2745231074845 | etot = -9.45019409764739
89000  ekin = 2.2699405107186 |  erot = 3.03403094267929 | epot = -14.7541655513008 | ebond = BLANK | eexcv = 0 | estk = -15.2833973000675 | etot = -9.4501940979029
90000  ekin = 2.25261490365647 |  erot = 3.1028503134319 | epot = -14.8056593152621 | ebond = BLANK | eexcv = 0 | estk = -15.2959127457491 | etot = -9.45019409817375
91000  ekin = 2.239624260765 |  erot = 3.16776026678919 | epot = -14.8575786259723 | ebond = BLANK | eexcv = 0 | estk = -15.3087657988682 | etot = -9.45019409841812
92000  ekin = 2.22950282085014 |  erot = 3.22600367176046 | epot = -14.905700591222 | ebond = BLANK | eexcv = 0 | estk = -15.3188594079903 | etot = -9.45019409861139
93000  ekin = 2.22100271367712 |  erot = 3.27524563992124 | epot = -14.9464424523465 | ebond = BLANK | eexcv = 0 | estk = -15.3236590745231 | etot = -9.45019409874818
94000  ekin = 2.21318645434834 |  erot = 3.31360241926403 | epot = -14.9769829724485 | ebond = BLANK | eexcv = 0 | estk = -15.3212933124374 | etot = -9.45019409883616
95000  ekin = 2.20540982038151 |  erot = 3.33959110721808 | epot = -14.995195026487 | ebond = BLANK | eexcv = 0 | estk = -15.3104719698904 | etot = -9.45019409888745
96000  ekin = 2.19724857999118 |  erot = 3.35206534244767 | epot = -14.9995080213504 | ebond = BLANK | eexcv = 0 | estk = -15.2903403004025 | etot = -9.45019409891151
97000  ekin = 2.18842261139444 |  erot = 3.3501847503256 | epot = -14.988801460632 | ebond = BLANK | eexcv = 0 | estk = -15.2603690576675 | etot = -9.45019409891195
98000  ekin = 2.17874977878438 |  erot = 3.33343345762866 | epot = -14.9623773352998 | ebond = BLANK | eexcv = 0 | estk = -15.2203271304501 | etot = -9.45019409888675
99000  ekin = 2.16813554472008 |  erot = 3.30167343191204 | epot = -14.9200030754638 | ebond = BLANK | eexcv = 0 | estk = -15.1703273127736 | etot = -9.45019409883172
100000  ekin = 2.15658537576644 |  erot = 3.25520289898334 | epot = -14.8619823734934 | ebond = BLANK | eexcv = 0 | estk = -15.1109015079125 | etot = -9.45019409874365
    100000   0.095848239   -0.94443134     0.015557446   -0.79408731    -7.4864189e-06  64000        
Loop time of 27.6643 on 4 procs for 100000 steps with 16 atoms

Performance: 3123.156 tau/day, 3614.764 timesteps/s, 57.836 katom-step/s
100.0% CPU use with 4 MPI tasks x 1 OpenMP threads

MPI task timing breakdown:
Section |  min time  |  avg time  |  max time  |%varavg| %total
---------------------------------------------------------------
Pair    | 11.602     | 13.422     | 15.057     |  34.1 | 48.52
Bond    | 2.6423     | 3.0303     | 3.1635     |  12.9 | 10.95
Neigh   | 0.015566   | 0.01559    | 0.015616   |   0.0 |  0.06
Comm    | 3.8951     | 5.6621     | 7.3457     |  55.0 | 20.47
Output  | 0.0090296  | 0.0096035  | 0.011017   |   0.8 |  0.03
Modify  | 2.4695     | 2.7161     | 2.8147     |   8.7 |  9.82
Other   |            | 2.809      |            |       | 10.15

Nlocal:              4 ave           5 max           3 min
Histogram: 2 0 0 0 0 0 0 0 0 2
Nghost:             12 ave          13 max          11 min
Histogram: 2 0 0 0 0 0 0 0 0 2
Neighs:          26.75 ave          51 max           5 min
Histogram: 1 0 0 1 0 1 0 0 0 1

Total # of neighbors = 107
Ave neighs/atom = 6.6875
Ave special neighs/atom = 3.75
Neighbor list builds = 100
Dangerous builds = 0
Total wall time: 0:00:27
