ITEM: TIMESTEP
0
ITEM: NUMBER OF ATOMS
2
ITEM: BOX BOUNDS pp pp pp
-2.0000000000000000e+00 2.0000000000000000e+00
-2.0000000000000000e+00 2.0000000000000000e+00
-4.0000000000000000e+00 4.0000000000000000e+00
ITEM: ATOMS id type x y z quatw quati quatj quatk shapex shapey shapez
2 0 0 0 -1 0.923785 0.382911 0 0 0.5 1 0.5
1 1 0 0 1 1 0 0 0 0.5 0.5 1
ITEM: TIMESTEP
1
ITEM: NUMBER OF ATOMS
2
ITEM: BOX BOUNDS pp pp pp
-2.0000000000000000e+00 2.0000000000000000e+00
-2.0000000000000000e+00 2.0000000000000000e+00
-4.0000000000000000e+00 4.0000000000000000e+00
ITEM: ATOMS id type x y z quatw quati quatj quatk shapex shapey shapez
2 0 0 0 -0.99 0.923785 0.382911 0 0 0.5 1 0.5
1 1 0 0 1.01 1 0 0 0 0.5 0.5 1
ITEM: TIMESTEP
2
ITEM: NUMBER OF ATOMS
2
ITEM: BOX BOUNDS pp pp pp
-2.0000000000000000e+00 2.0000000000000000e+00
-2.0000000000000000e+00 2.0000000000000000e+00
-4.0000000000000000e+00 4.0000000000000000e+00
ITEM: ATOMS id type x y z quatw quati quatj quatk shapex shapey shapez
2 0 0 0 -0.98 0.923785 0.382911 0 0 0.5 1 0.5
1 1 0 0 1.02 1 0 0 0 0.5 0.5 1
ITEM: TIMESTEP
3
ITEM: NUMBER OF ATOMS
2
ITEM: BOX BOUNDS pp pp pp
-2.0000000000000000e+00 2.0000000000000000e+00
-2.0000000000000000e+00 2.0000000000000000e+00
-4.0000000000000000e+00 4.0000000000000000e+00
ITEM: ATOMS id type x y z quatw quati quatj quatk shapex shapey shapez
2 0 0 0 -0.97 0.923785 0.382911 0 0 0.5 1 0.5
1 1 0 0 1.03 1 0 0 0 0.5 0.5 1
ITEM: TIMESTEP
4
ITEM: NUMBER OF ATOMS
2
ITEM: BOX BOUNDS pp pp pp
-2.0000000000000000e+00 2.0000000000000000e+00
-2.0000000000000000e+00 2.0000000000000000e+00
-4.0000000000000000e+00 4.0000000000000000e+00
ITEM: ATOMS id type x y z quatw quati quatj quatk shapex shapey shapez
2 0 0 0 -0.96 0.923785 0.382911 0 0 0.5 1 0.5
1 1 0 0 1.04 1 0 0 0 0.5 0.5 1
ITEM: TIMESTEP
5
ITEM: NUMBER OF ATOMS
2
ITEM: BOX BOUNDS pp pp pp
-2.0000000000000000e+00 2.0000000000000000e+00
-2.0000000000000000e+00 2.0000000000000000e+00
-4.0000000000000000e+00 4.0000000000000000e+00
ITEM: ATOMS id type x y z quatw quati quatj quatk shapex shapey shapez
2 0 0 0 -0.95 0.923785 0.382911 0 0 0.5 1 0.5
1 1 0 0 1.05 1 0 0 0 0.5 0.5 1
ITEM: TIMESTEP
6
ITEM: NUMBER OF ATOMS
2
ITEM: BOX BOUNDS pp pp pp
-2.0000000000000000e+00 2.0000000000000000e+00
-2.0000000000000000e+00 2.0000000000000000e+00
-4.0000000000000000e+00 4.0000000000000000e+00
ITEM: ATOMS id type x y z quatw quati quatj quatk shapex shapey shapez
2 0 0 0 -0.94 0.923785 0.382911 0 0 0.5 1 0.5
1 1 0 0 1.06 1 0 0 0 0.5 0.5 1
ITEM: TIMESTEP
7
ITEM: NUMBER OF ATOMS
2
ITEM: BOX BOUNDS pp pp pp
-2.0000000000000000e+00 2.0000000000000000e+00
-2.0000000000000000e+00 2.0000000000000000e+00
-4.0000000000000000e+00 4.0000000000000000e+00
ITEM: ATOMS id type x y z quatw quati quatj quatk shapex shapey shapez
2 0 0 0 -0.93 0.923785 0.382911 0 0 0.5 1 0.5
1 1 0 0 1.07 1 0 0 0 0.5 0.5 1
ITEM: TIMESTEP
8
ITEM: NUMBER OF ATOMS
2
ITEM: BOX BOUNDS pp pp pp
-2.0000000000000000e+00 2.0000000000000000e+00
-2.0000000000000000e+00 2.0000000000000000e+00
-4.0000000000000000e+00 4.0000000000000000e+00
ITEM: ATOMS id type x y z quatw quati quatj quatk shapex shapey shapez
2 0 0 0 -0.92 0.923785 0.382911 0 0 0.5 1 0.5
1 1 0 0 1.08 1 0 0 0 0.5 0.5 1
ITEM: TIMESTEP
9
ITEM: NUMBER OF ATOMS
2
ITEM: BOX BOUNDS pp pp pp
-2.0000000000000000e+00 2.0000000000000000e+00
-2.0000000000000000e+00 2.0000000000000000e+00
-4.0000000000000000e+00 4.0000000000000000e+00
ITEM: ATOMS id type x y z quatw quati quatj quatk shapex shapey shapez
2 0 0 0 -0.91 0.923785 0.382911 0 0 0.5 1 0.5
1 1 0 0 1.09 1 0 0 0 0.5 0.5 1
ITEM: TIMESTEP
10
ITEM: NUMBER OF ATOMS
2
ITEM: BOX BOUNDS pp pp pp
-2.0000000000000000e+00 2.0000000000000000e+00
-2.0000000000000000e+00 2.0000000000000000e+00
-4.0000000000000000e+00 4.0000000000000000e+00
ITEM: ATOMS id type x y z quatw quati quatj quatk shapex shapey shapez
2 0 0 0 -0.9 0.923785 0.382911 0 0 0.5 1 0.5
1 1 0 0 1.1 1 0 0 0 0.5 0.5 1
ITEM: TIMESTEP
11
ITEM: NUMBER OF ATOMS
2
ITEM: BOX BOUNDS pp pp pp
-2.0000000000000000e+00 2.0000000000000000e+00
-2.0000000000000000e+00 2.0000000000000000e+00
-4.0000000000000000e+00 4.0000000000000000e+00
ITEM: ATOMS id type x y z quatw quati quatj quatk shapex shapey shapez
2 0 0 0 -0.89 0.923785 0.382911 0 0 0.5 1 0.5
1 1 0 0 1.11 1 0 0 0 0.5 0.5 1
ITEM: TIMESTEP
12
ITEM: NUMBER OF ATOMS
2
ITEM: BOX BOUNDS pp pp pp
-2.0000000000000000e+00 2.0000000000000000e+00
-2.0000000000000000e+00 2.0000000000000000e+00
-4.0000000000000000e+00 4.0000000000000000e+00
ITEM: ATOMS id type x y z quatw quati quatj quatk shapex shapey shapez
2 0 0 0 -0.88 0.923785 0.382911 0 0 0.5 1 0.5
1 1 0 0 1.12 1 0 0 0 0.5 0.5 1
ITEM: TIMESTEP
13
ITEM: NUMBER OF ATOMS
2
ITEM: BOX BOUNDS pp pp pp
-2.0000000000000000e+00 2.0000000000000000e+00
-2.0000000000000000e+00 2.0000000000000000e+00
-4.0000000000000000e+00 4.0000000000000000e+00
ITEM: ATOMS id type x y z quatw quati quatj quatk shapex shapey shapez
2 0 0 0 -0.87 0.923785 0.382911 0 0 0.5 1 0.5
1 1 0 0 1.13 1 0 0 0 0.5 0.5 1
ITEM: TIMESTEP
14
ITEM: NUMBER OF ATOMS
2
ITEM: BOX BOUNDS pp pp pp
-2.0000000000000000e+00 2.0000000000000000e+00
-2.0000000000000000e+00 2.0000000000000000e+00
-4.0000000000000000e+00 4.0000000000000000e+00
ITEM: ATOMS id type x y z quatw quati quatj quatk shapex shapey shapez
2 0 0 0 -0.86 0.923785 0.382911 0 0 0.5 1 0.5
1 1 0 0 1.14 1 0 0 0 0.5 0.5 1
ITEM: TIMESTEP
15
ITEM: NUMBER OF ATOMS
2
ITEM: BOX BOUNDS pp pp pp
-2.0000000000000000e+00 2.0000000000000000e+00
-2.0000000000000000e+00 2.0000000000000000e+00
-4.0000000000000000e+00 4.0000000000000000e+00
ITEM: ATOMS id type x y z quatw quati quatj quatk shapex shapey shapez
2 0 0 0 -0.85 0.923785 0.382911 0 0 0.5 1 0.5
1 1 0 0 1.15 1 0 0 0 0.5 0.5 1
ITEM: TIMESTEP
16
ITEM: NUMBER OF ATOMS
2
ITEM: BOX BOUNDS pp pp pp
-2.0000000000000000e+00 2.0000000000000000e+00
-2.0000000000000000e+00 2.0000000000000000e+00
-4.0000000000000000e+00 4.0000000000000000e+00
ITEM: ATOMS id type x y z quatw quati quatj quatk shapex shapey shapez
2 0 0 0 -0.84 0.923785 0.382911 0 0 0.5 1 0.5
1 1 0 0 1.16 1 0 0 0 0.5 0.5 1
ITEM: TIMESTEP
17
ITEM: NUMBER OF ATOMS
2
ITEM: BOX BOUNDS pp pp pp
-2.0000000000000000e+00 2.0000000000000000e+00
-2.0000000000000000e+00 2.0000000000000000e+00
-4.0000000000000000e+00 4.0000000000000000e+00
ITEM: ATOMS id type x y z quatw quati quatj quatk shapex shapey shapez
2 0 0 0 -0.83 0.923785 0.382911 0 0 0.5 1 0.5
1 1 0 0 1.17 1 0 0 0 0.5 0.5 1
ITEM: TIMESTEP
18
ITEM: NUMBER OF ATOMS
2
ITEM: BOX BOUNDS pp pp pp
-2.0000000000000000e+00 2.0000000000000000e+00
-2.0000000000000000e+00 2.0000000000000000e+00
-4.0000000000000000e+00 4.0000000000000000e+00
ITEM: ATOMS id type x y z quatw quati quatj quatk shapex shapey shapez
2 0 0 0 -0.82 0.923785 0.382911 0 0 0.5 1 0.5
1 1 0 0 1.18 1 0 0 0 0.5 0.5 1
ITEM: TIMESTEP
19
ITEM: NUMBER OF ATOMS
2
ITEM: BOX BOUNDS pp pp pp
-2.0000000000000000e+00 2.0000000000000000e+00
-2.0000000000000000e+00 2.0000000000000000e+00
-4.0000000000000000e+00 4.0000000000000000e+00
ITEM: ATOMS id type x y z quatw quati quatj quatk shapex shapey shapez
2 0 0 0 -0.81 0.923785 0.382911 0 0 0.5 1 0.5
1 1 0 0 1.19 1 0 0 0 0.5 0.5 1
ITEM: TIMESTEP
20
ITEM: NUMBER OF ATOMS
2
ITEM: BOX BOUNDS pp pp pp
-2.0000000000000000e+00 2.0000000000000000e+00
-2.0000000000000000e+00 2.0000000000000000e+00
-4.0000000000000000e+00 4.0000000000000000e+00
ITEM: ATOMS id type x y z quatw quati quatj quatk shapex shapey shapez
2 0 0 0 -0.8 0.923785 0.382911 0 0 0.5 1 0.5
1 1 0 0 1.2 1 0 0 0 0.5 0.5 1
ITEM: TIMESTEP
21
ITEM: NUMBER OF ATOMS
2
ITEM: BOX BOUNDS pp pp pp
-2.0000000000000000e+00 2.0000000000000000e+00
-2.0000000000000000e+00 2.0000000000000000e+00
-4.0000000000000000e+00 4.0000000000000000e+00
ITEM: ATOMS id type x y z quatw quati quatj quatk shapex shapey shapez
2 0 0 0 -0.79 0.923785 0.382911 0 0 0.5 1 0.5
1 1 0 0 1.21 1 0 0 0 0.5 0.5 1
ITEM: TIMESTEP
22
ITEM: NUMBER OF ATOMS
2
ITEM: BOX BOUNDS pp pp pp
-2.0000000000000000e+00 2.0000000000000000e+00
-2.0000000000000000e+00 2.0000000000000000e+00
-4.0000000000000000e+00 4.0000000000000000e+00
ITEM: ATOMS id type x y z quatw quati quatj quatk shapex shapey shapez
2 0 0 0 -0.78 0.923785 0.382911 0 0 0.5 1 0.5
1 1 0 0 1.22 1 0 0 0 0.5 0.5 1
ITEM: TIMESTEP
23
ITEM: NUMBER OF ATOMS
2
ITEM: BOX BOUNDS pp pp pp
-2.0000000000000000e+00 2.0000000000000000e+00
-2.0000000000000000e+00 2.0000000000000000e+00
-4.0000000000000000e+00 4.0000000000000000e+00
ITEM: ATOMS id type x y z quatw quati quatj quatk shapex shapey shapez
2 0 0 0 -0.77 0.923785 0.382911 0 0 0.5 1 0.5
1 1 0 0 1.23 1 0 0 0 0.5 0.5 1
ITEM: TIMESTEP
24
ITEM: NUMBER OF ATOMS
2
ITEM: BOX BOUNDS pp pp pp
-2.0000000000000000e+00 2.0000000000000000e+00
-2.0000000000000000e+00 2.0000000000000000e+00
-4.0000000000000000e+00 4.0000000000000000e+00
ITEM: ATOMS id type x y z quatw quati quatj quatk shapex shapey shapez
2 0 0 0 -0.76 0.923785 0.382911 0 0 0.5 1 0.5
1 1 0 0 1.24 1 0 0 0 0.5 0.5 1
ITEM: TIMESTEP
25
ITEM: NUMBER OF ATOMS
2
ITEM: BOX BOUNDS pp pp pp
-2.0000000000000000e+00 2.0000000000000000e+00
-2.0000000000000000e+00 2.0000000000000000e+00
-4.0000000000000000e+00 4.0000000000000000e+00
ITEM: ATOMS id type x y z quatw quati quatj quatk shapex shapey shapez
2 0 0 0 -0.75 0.923785 0.382911 0 0 0.5 1 0.5
1 1 0 0 1.25 1 0 0 0 0.5 0.5 1
ITEM: TIMESTEP
26
ITEM: NUMBER OF ATOMS
2
ITEM: BOX BOUNDS pp pp pp
-2.0000000000000000e+00 2.0000000000000000e+00
-2.0000000000000000e+00 2.0000000000000000e+00
-4.0000000000000000e+00 4.0000000000000000e+00
ITEM: ATOMS id type x y z quatw quati quatj quatk shapex shapey shapez
2 0 0 0 -0.74 0.923785 0.382911 0 0 0.5 1 0.5
1 1 0 0 1.26 1 0 0 0 0.5 0.5 1
ITEM: TIMESTEP
27
ITEM: NUMBER OF ATOMS
2
ITEM: BOX BOUNDS pp pp pp
-2.0000000000000000e+00 2.0000000000000000e+00
-2.0000000000000000e+00 2.0000000000000000e+00
-4.0000000000000000e+00 4.0000000000000000e+00
ITEM: ATOMS id type x y z quatw quati quatj quatk shapex shapey shapez
2 0 0 0 -0.73 0.923785 0.382911 0 0 0.5 1 0.5
1 1 0 0 1.27 1 0 0 0 0.5 0.5 1
ITEM: TIMESTEP
28
ITEM: NUMBER OF ATOMS
2
ITEM: BOX BOUNDS pp pp pp
-2.0000000000000000e+00 2.0000000000000000e+00
-2.0000000000000000e+00 2.0000000000000000e+00
-4.0000000000000000e+00 4.0000000000000000e+00
ITEM: ATOMS id type x y z quatw quati quatj quatk shapex shapey shapez
2 0 0 0 -0.72 0.923785 0.382911 0 0 0.5 1 0.5
1 1 0 0 1.28 1 0 0 0 0.5 0.5 1
ITEM: TIMESTEP
29
ITEM: NUMBER OF ATOMS
2
ITEM: BOX BOUNDS pp pp pp
-2.0000000000000000e+00 2.0000000000000000e+00
-2.0000000000000000e+00 2.0000000000000000e+00
-4.0000000000000000e+00 4.0000000000000000e+00
ITEM: ATOMS id type x y z quatw quati quatj quatk shapex shapey shapez
2 0 0 0 -0.71 0.923785 0.382911 0 0 0.5 1 0.5
1 1 0 0 1.29 1 0 0 0 0.5 0.5 1
ITEM: TIMESTEP
30
ITEM: NUMBER OF ATOMS
2
ITEM: BOX BOUNDS pp pp pp
-2.0000000000000000e+00 2.0000000000000000e+00
-2.0000000000000000e+00 2.0000000000000000e+00
-4.0000000000000000e+00 4.0000000000000000e+00
ITEM: ATOMS id type x y z quatw quati quatj quatk shapex shapey shapez
2 0 0 0 -0.7 0.923785 0.382911 0 0 0.5 1 0.5
1 1 0 0 1.3 1 0 0 0 0.5 0.5 1
ITEM: TIMESTEP
31
ITEM: NUMBER OF ATOMS
2
ITEM: BOX BOUNDS pp pp pp
-2.0000000000000000e+00 2.0000000000000000e+00
-2.0000000000000000e+00 2.0000000000000000e+00
-4.0000000000000000e+00 4.0000000000000000e+00
ITEM: ATOMS id type x y z quatw quati quatj quatk shapex shapey shapez
2 0 0 0 -0.69 0.923785 0.382911 0 0 0.5 1 0.5
1 1 0 0 1.31 1 0 0 0 0.5 0.5 1
ITEM: TIMESTEP
32
ITEM: NUMBER OF ATOMS
2
ITEM: BOX BOUNDS pp pp pp
-2.0000000000000000e+00 2.0000000000000000e+00
-2.0000000000000000e+00 2.0000000000000000e+00
-4.0000000000000000e+00 4.0000000000000000e+00
ITEM: ATOMS id type x y z quatw quati quatj quatk shapex shapey shapez
2 0 0 0 -0.68 0.923785 0.382911 0 0 0.5 1 0.5
1 1 0 0 1.32 1 0 0 0 0.5 0.5 1
ITEM: TIMESTEP
33
ITEM: NUMBER OF ATOMS
2
ITEM: BOX BOUNDS pp pp pp
-2.0000000000000000e+00 2.0000000000000000e+00
-2.0000000000000000e+00 2.0000000000000000e+00
-4.0000000000000000e+00 4.0000000000000000e+00
ITEM: ATOMS id type x y z quatw quati quatj quatk shapex shapey shapez
2 0 0 0 -0.67 0.923785 0.382911 0 0 0.5 1 0.5
1 1 0 0 1.33 1 0 0 0 0.5 0.5 1
ITEM: TIMESTEP
34
ITEM: NUMBER OF ATOMS
2
ITEM: BOX BOUNDS pp pp pp
-2.0000000000000000e+00 2.0000000000000000e+00
-2.0000000000000000e+00 2.0000000000000000e+00
-4.0000000000000000e+00 4.0000000000000000e+00
ITEM: ATOMS id type x y z quatw quati quatj quatk shapex shapey shapez
2 0 0 0 -0.66 0.923785 0.382911 0 0 0.5 1 0.5
1 1 0 0 1.34 1 0 0 0 0.5 0.5 1
ITEM: TIMESTEP
35
ITEM: NUMBER OF ATOMS
2
ITEM: BOX BOUNDS pp pp pp
-2.0000000000000000e+00 2.0000000000000000e+00
-2.0000000000000000e+00 2.0000000000000000e+00
-4.0000000000000000e+00 4.0000000000000000e+00
ITEM: ATOMS id type x y z quatw quati quatj quatk shapex shapey shapez
2 0 0 0 -0.65 0.923785 0.382911 0 0 0.5 1 0.5
1 1 0 0 1.35 1 0 0 0 0.5 0.5 1
ITEM: TIMESTEP
36
ITEM: NUMBER OF ATOMS
2
ITEM: BOX BOUNDS pp pp pp
-2.0000000000000000e+00 2.0000000000000000e+00
-2.0000000000000000e+00 2.0000000000000000e+00
-4.0000000000000000e+00 4.0000000000000000e+00
ITEM: ATOMS id type x y z quatw quati quatj quatk shapex shapey shapez
2 0 0 0 -0.64 0.923785 0.382911 0 0 0.5 1 0.5
1 1 0 0 1.36 1 0 0 0 0.5 0.5 1
ITEM: TIMESTEP
37
ITEM: NUMBER OF ATOMS
2
ITEM: BOX BOUNDS pp pp pp
-2.0000000000000000e+00 2.0000000000000000e+00
-2.0000000000000000e+00 2.0000000000000000e+00
-4.0000000000000000e+00 4.0000000000000000e+00
ITEM: ATOMS id type x y z quatw quati quatj quatk shapex shapey shapez
2 0 0 0 -0.63 0.923785 0.382911 0 0 0.5 1 0.5
1 1 0 0 1.37 1 0 0 0 0.5 0.5 1
ITEM: TIMESTEP
38
ITEM: NUMBER OF ATOMS
2
ITEM: BOX BOUNDS pp pp pp
-2.0000000000000000e+00 2.0000000000000000e+00
-2.0000000000000000e+00 2.0000000000000000e+00
-4.0000000000000000e+00 4.0000000000000000e+00
ITEM: ATOMS id type x y z quatw quati quatj quatk shapex shapey shapez
2 0 0 0 -0.62 0.923785 0.382911 0 0 0.5 1 0.5
1 1 0 0 1.38 1 0 0 0 0.5 0.5 1
ITEM: TIMESTEP
39
ITEM: NUMBER OF ATOMS
2
ITEM: BOX BOUNDS pp pp pp
-2.0000000000000000e+00 2.0000000000000000e+00
-2.0000000000000000e+00 2.0000000000000000e+00
-4.0000000000000000e+00 4.0000000000000000e+00
ITEM: ATOMS id type x y z quatw quati quatj quatk shapex shapey shapez
2 0 0 0 -0.61 0.923785 0.382911 0 0 0.5 1 0.5
1 1 0 0 1.39 1 0 0 0 0.5 0.5 1
ITEM: TIMESTEP
40
ITEM: NUMBER OF ATOMS
2
ITEM: BOX BOUNDS pp pp pp
-2.0000000000000000e+00 2.0000000000000000e+00
-2.0000000000000000e+00 2.0000000000000000e+00
-4.0000000000000000e+00 4.0000000000000000e+00
ITEM: ATOMS id type x y z quatw quati quatj quatk shapex shapey shapez
2 0 0 0 -0.6 0.923785 0.382911 0 0 0.5 1 0.5
1 1 0 0 1.4 1 0 0 0 0.5 0.5 1
ITEM: TIMESTEP
41
ITEM: NUMBER OF ATOMS
2
ITEM: BOX BOUNDS pp pp pp
-2.0000000000000000e+00 2.0000000000000000e+00
-2.0000000000000000e+00 2.0000000000000000e+00
-4.0000000000000000e+00 4.0000000000000000e+00
ITEM: ATOMS id type x y z quatw quati quatj quatk shapex shapey shapez
2 0 0 0 -0.59 0.923785 0.382911 0 0 0.5 1 0.5
1 1 0 0 1.41 1 0 0 0 0.5 0.5 1
ITEM: TIMESTEP
42
ITEM: NUMBER OF ATOMS
2
ITEM: BOX BOUNDS pp pp pp
-2.0000000000000000e+00 2.0000000000000000e+00
-2.0000000000000000e+00 2.0000000000000000e+00
-4.0000000000000000e+00 4.0000000000000000e+00
ITEM: ATOMS id type x y z quatw quati quatj quatk shapex shapey shapez
2 0 0 0 -0.58 0.923785 0.382911 0 0 0.5 1 0.5
1 1 0 0 1.42 1 0 0 0 0.5 0.5 1
ITEM: TIMESTEP
43
ITEM: NUMBER OF ATOMS
2
ITEM: BOX BOUNDS pp pp pp
-2.0000000000000000e+00 2.0000000000000000e+00
-2.0000000000000000e+00 2.0000000000000000e+00
-4.0000000000000000e+00 4.0000000000000000e+00
ITEM: ATOMS id type x y z quatw quati quatj quatk shapex shapey shapez
2 0 0 0 -0.57 0.923785 0.382911 0 0 0.5 1 0.5
1 1 0 0 1.43 1 0 0 0 0.5 0.5 1
ITEM: TIMESTEP
44
ITEM: NUMBER OF ATOMS
2
ITEM: BOX BOUNDS pp pp pp
-2.0000000000000000e+00 2.0000000000000000e+00
-2.0000000000000000e+00 2.0000000000000000e+00
-4.0000000000000000e+00 4.0000000000000000e+00
ITEM: ATOMS id type x y z quatw quati quatj quatk shapex shapey shapez
2 0 0 0 -0.56 0.923785 0.382911 0 0 0.5 1 0.5
1 1 0 0 1.44 1 0 0 0 0.5 0.5 1
ITEM: TIMESTEP
45
ITEM: NUMBER OF ATOMS
2
ITEM: BOX BOUNDS pp pp pp
-2.0000000000000000e+00 2.0000000000000000e+00
-2.0000000000000000e+00 2.0000000000000000e+00
-4.0000000000000000e+00 4.0000000000000000e+00
ITEM: ATOMS id type x y z quatw quati quatj quatk shapex shapey shapez
2 0 0 0 -0.55 0.923785 0.382911 0 0 0.5 1 0.5
1 1 0 0 1.45 1 0 0 0 0.5 0.5 1
ITEM: TIMESTEP
46
ITEM: NUMBER OF ATOMS
2
ITEM: BOX BOUNDS pp pp pp
-2.0000000000000000e+00 2.0000000000000000e+00
-2.0000000000000000e+00 2.0000000000000000e+00
-4.0000000000000000e+00 4.0000000000000000e+00
ITEM: ATOMS id type x y z quatw quati quatj quatk shapex shapey shapez
2 0 0 0 -0.54 0.923785 0.382911 0 0 0.5 1 0.5
1 1 0 0 1.46 1 0 0 0 0.5 0.5 1
ITEM: TIMESTEP
47
ITEM: NUMBER OF ATOMS
2
ITEM: BOX BOUNDS pp pp pp
-2.0000000000000000e+00 2.0000000000000000e+00
-2.0000000000000000e+00 2.0000000000000000e+00
-4.0000000000000000e+00 4.0000000000000000e+00
ITEM: ATOMS id type x y z quatw quati quatj quatk shapex shapey shapez
2 0 0 0 -0.53 0.923785 0.382911 0 0 0.5 1 0.5
1 1 0 0 1.47 1 0 0 0 0.5 0.5 1
ITEM: TIMESTEP
48
ITEM: NUMBER OF ATOMS
2
ITEM: BOX BOUNDS pp pp pp
-2.0000000000000000e+00 2.0000000000000000e+00
-2.0000000000000000e+00 2.0000000000000000e+00
-4.0000000000000000e+00 4.0000000000000000e+00
ITEM: ATOMS id type x y z quatw quati quatj quatk shapex shapey shapez
2 0 0 0 -0.52 0.923785 0.382911 0 0 0.5 1 0.5
1 1 0 0 1.48 1 0 0 0 0.5 0.5 1
ITEM: TIMESTEP
49
ITEM: NUMBER OF ATOMS
2
ITEM: BOX BOUNDS pp pp pp
-2.0000000000000000e+00 2.0000000000000000e+00
-2.0000000000000000e+00 2.0000000000000000e+00
-4.0000000000000000e+00 4.0000000000000000e+00
ITEM: ATOMS id type x y z quatw quati quatj quatk shapex shapey shapez
2 0 0 0 -0.51 0.923785 0.382911 0 0 0.5 1 0.5
1 1 0 0 1.49 1 0 0 0 0.5 0.5 1
ITEM: TIMESTEP
50
ITEM: NUMBER OF ATOMS
2
ITEM: BOX BOUNDS pp pp pp
-2.0000000000000000e+00 2.0000000000000000e+00
-2.0000000000000000e+00 2.0000000000000000e+00
-4.0000000000000000e+00 4.0000000000000000e+00
ITEM: ATOMS id type x y z quatw quati quatj quatk shapex shapey shapez
2 0 0 0 -0.5 0.923785 0.382911 0 0 0.5 1 0.5
1 1 0 0 1.5 1 0 0 0 0.5 0.5 1
ITEM: TIMESTEP
51
ITEM: NUMBER OF ATOMS
2
ITEM: BOX BOUNDS pp pp pp
-2.0000000000000000e+00 2.0000000000000000e+00
-2.0000000000000000e+00 2.0000000000000000e+00
-4.0000000000000000e+00 4.0000000000000000e+00
ITEM: ATOMS id type x y z quatw quati quatj quatk shapex shapey shapez
2 0 0 0 -0.49 0.923785 0.382911 0 0 0.5 1 0.5
1 1 0 0 1.51 1 0 0 0 0.5 0.5 1
ITEM: TIMESTEP
52
ITEM: NUMBER OF ATOMS
2
ITEM: BOX BOUNDS pp pp pp
-2.0000000000000000e+00 2.0000000000000000e+00
-2.0000000000000000e+00 2.0000000000000000e+00
-4.0000000000000000e+00 4.0000000000000000e+00
ITEM: ATOMS id type x y z quatw quati quatj quatk shapex shapey shapez
2 0 0 0 -0.48 0.923785 0.382911 0 0 0.5 1 0.5
1 1 0 0 1.52 1 0 0 0 0.5 0.5 1
ITEM: TIMESTEP
53
ITEM: NUMBER OF ATOMS
2
ITEM: BOX BOUNDS pp pp pp
-2.0000000000000000e+00 2.0000000000000000e+00
-2.0000000000000000e+00 2.0000000000000000e+00
-4.0000000000000000e+00 4.0000000000000000e+00
ITEM: ATOMS id type x y z quatw quati quatj quatk shapex shapey shapez
2 0 0 0 -0.47 0.923785 0.382911 0 0 0.5 1 0.5
1 1 0 0 1.53 1 0 0 0 0.5 0.5 1
ITEM: TIMESTEP
54
ITEM: NUMBER OF ATOMS
2
ITEM: BOX BOUNDS pp pp pp
-2.0000000000000000e+00 2.0000000000000000e+00
-2.0000000000000000e+00 2.0000000000000000e+00
-4.0000000000000000e+00 4.0000000000000000e+00
ITEM: ATOMS id type x y z quatw quati quatj quatk shapex shapey shapez
2 0 0 0 -0.46 0.923785 0.382911 0 0 0.5 1 0.5
1 1 0 0 1.54 1 0 0 0 0.5 0.5 1
ITEM: TIMESTEP
55
ITEM: NUMBER OF ATOMS
2
ITEM: BOX BOUNDS pp pp pp
-2.0000000000000000e+00 2.0000000000000000e+00
-2.0000000000000000e+00 2.0000000000000000e+00
-4.0000000000000000e+00 4.0000000000000000e+00
ITEM: ATOMS id type x y z quatw quati quatj quatk shapex shapey shapez
2 0 0 0 -0.45 0.923785 0.382911 0 0 0.5 1 0.5
1 1 0 0 1.55 1 0 0 0 0.5 0.5 1
ITEM: TIMESTEP
56
ITEM: NUMBER OF ATOMS
2
ITEM: BOX BOUNDS pp pp pp
-2.0000000000000000e+00 2.0000000000000000e+00
-2.0000000000000000e+00 2.0000000000000000e+00
-4.0000000000000000e+00 4.0000000000000000e+00
ITEM: ATOMS id type x y z quatw quati quatj quatk shapex shapey shapez
2 0 0 0 -0.44 0.923785 0.382911 0 0 0.5 1 0.5
1 1 0 0 1.56 1 0 0 0 0.5 0.5 1
ITEM: TIMESTEP
57
ITEM: NUMBER OF ATOMS
2
ITEM: BOX BOUNDS pp pp pp
-2.0000000000000000e+00 2.0000000000000000e+00
-2.0000000000000000e+00 2.0000000000000000e+00
-4.0000000000000000e+00 4.0000000000000000e+00
ITEM: ATOMS id type x y z quatw quati quatj quatk shapex shapey shapez
2 0 0 0 -0.43 0.923785 0.382911 0 0 0.5 1 0.5
1 1 0 0 1.57 1 0 0 0 0.5 0.5 1
ITEM: TIMESTEP
58
ITEM: NUMBER OF ATOMS
2
ITEM: BOX BOUNDS pp pp pp
-2.0000000000000000e+00 2.0000000000000000e+00
-2.0000000000000000e+00 2.0000000000000000e+00
-4.0000000000000000e+00 4.0000000000000000e+00
ITEM: ATOMS id type x y z quatw quati quatj quatk shapex shapey shapez
2 0 0 0 -0.42 0.923785 0.382911 0 0 0.5 1 0.5
1 1 0 0 1.58 1 0 0 0 0.5 0.5 1
ITEM: TIMESTEP
59
ITEM: NUMBER OF ATOMS
2
ITEM: BOX BOUNDS pp pp pp
-2.0000000000000000e+00 2.0000000000000000e+00
-2.0000000000000000e+00 2.0000000000000000e+00
-4.0000000000000000e+00 4.0000000000000000e+00
ITEM: ATOMS id type x y z quatw quati quatj quatk shapex shapey shapez
2 0 0 0 -0.41 0.923785 0.382911 0 0 0.5 1 0.5
1 1 0 0 1.59 1 0 0 0 0.5 0.5 1
ITEM: TIMESTEP
60
ITEM: NUMBER OF ATOMS
2
ITEM: BOX BOUNDS pp pp pp
-2.0000000000000000e+00 2.0000000000000000e+00
-2.0000000000000000e+00 2.0000000000000000e+00
-4.0000000000000000e+00 4.0000000000000000e+00
ITEM: ATOMS id type x y z quatw quati quatj quatk shapex shapey shapez
2 0 0 0 -0.4 0.923785 0.382911 0 0 0.5 1 0.5
1 1 0 0 1.6 1 0 0 0 0.5 0.5 1
ITEM: TIMESTEP
61
ITEM: NUMBER OF ATOMS
2
ITEM: BOX BOUNDS pp pp pp
-2.0000000000000000e+00 2.0000000000000000e+00
-2.0000000000000000e+00 2.0000000000000000e+00
-4.0000000000000000e+00 4.0000000000000000e+00
ITEM: ATOMS id type x y z quatw quati quatj quatk shapex shapey shapez
2 0 0 0 -0.39 0.923785 0.382911 0 0 0.5 1 0.5
1 1 0 0 1.61 1 0 0 0 0.5 0.5 1
ITEM: TIMESTEP
62
ITEM: NUMBER OF ATOMS
2
ITEM: BOX BOUNDS pp pp pp
-2.0000000000000000e+00 2.0000000000000000e+00
-2.0000000000000000e+00 2.0000000000000000e+00
-4.0000000000000000e+00 4.0000000000000000e+00
ITEM: ATOMS id type x y z quatw quati quatj quatk shapex shapey shapez
2 0 0 0 -0.38 0.923785 0.382911 0 0 0.5 1 0.5
1 1 0 0 1.62 1 0 0 0 0.5 0.5 1
ITEM: TIMESTEP
63
ITEM: NUMBER OF ATOMS
2
ITEM: BOX BOUNDS pp pp pp
-2.0000000000000000e+00 2.0000000000000000e+00
-2.0000000000000000e+00 2.0000000000000000e+00
-4.0000000000000000e+00 4.0000000000000000e+00
ITEM: ATOMS id type x y z quatw quati quatj quatk shapex shapey shapez
2 0 0 0 -0.37 0.923785 0.382911 0 0 0.5 1 0.5
1 1 0 0 1.63 1 0 0 0 0.5 0.5 1
ITEM: TIMESTEP
64
ITEM: NUMBER OF ATOMS
2
ITEM: BOX BOUNDS pp pp pp
-2.0000000000000000e+00 2.0000000000000000e+00
-2.0000000000000000e+00 2.0000000000000000e+00
-4.0000000000000000e+00 4.0000000000000000e+00
ITEM: ATOMS id type x y z quatw quati quatj quatk shapex shapey shapez
2 0 0 0 -0.36 0.923785 0.382911 0 0 0.5 1 0.5
1 1 0 0 1.64 1 0 0 0 0.5 0.5 1
ITEM: TIMESTEP
65
ITEM: NUMBER OF ATOMS
2
ITEM: BOX BOUNDS pp pp pp
-2.0000000000000000e+00 2.0000000000000000e+00
-2.0000000000000000e+00 2.0000000000000000e+00
-4.0000000000000000e+00 4.0000000000000000e+00
ITEM: ATOMS id type x y z quatw quati quatj quatk shapex shapey shapez
2 0 0 0 -0.35 0.923785 0.382911 0 0 0.5 1 0.5
1 1 0 0 1.65 1 0 0 0 0.5 0.5 1
ITEM: TIMESTEP
66
ITEM: NUMBER OF ATOMS
2
ITEM: BOX BOUNDS pp pp pp
-2.0000000000000000e+00 2.0000000000000000e+00
-2.0000000000000000e+00 2.0000000000000000e+00
-4.0000000000000000e+00 4.0000000000000000e+00
ITEM: ATOMS id type x y z quatw quati quatj quatk shapex shapey shapez
2 0 0 0 -0.34 0.923785 0.382911 0 0 0.5 1 0.5
1 1 0 0 1.66 1 0 0 0 0.5 0.5 1
ITEM: TIMESTEP
67
ITEM: NUMBER OF ATOMS
2
ITEM: BOX BOUNDS pp pp pp
-2.0000000000000000e+00 2.0000000000000000e+00
-2.0000000000000000e+00 2.0000000000000000e+00
-4.0000000000000000e+00 4.0000000000000000e+00
ITEM: ATOMS id type x y z quatw quati quatj quatk shapex shapey shapez
2 0 0 0 -0.33 0.923785 0.382911 0 0 0.5 1 0.5
1 1 0 0 1.67 1 0 0 0 0.5 0.5 1
ITEM: TIMESTEP
68
ITEM: NUMBER OF ATOMS
2
ITEM: BOX BOUNDS pp pp pp
-2.0000000000000000e+00 2.0000000000000000e+00
-2.0000000000000000e+00 2.0000000000000000e+00
-4.0000000000000000e+00 4.0000000000000000e+00
ITEM: ATOMS id type x y z quatw quati quatj quatk shapex shapey shapez
2 0 0 0 -0.32 0.923785 0.382911 0 0 0.5 1 0.5
1 1 0 0 1.68 1 0 0 0 0.5 0.5 1
ITEM: TIMESTEP
69
ITEM: NUMBER OF ATOMS
2
ITEM: BOX BOUNDS pp pp pp
-2.0000000000000000e+00 2.0000000000000000e+00
-2.0000000000000000e+00 2.0000000000000000e+00
-4.0000000000000000e+00 4.0000000000000000e+00
ITEM: ATOMS id type x y z quatw quati quatj quatk shapex shapey shapez
2 0 0 0 -0.31 0.923785 0.382911 0 0 0.5 1 0.5
1 1 0 0 1.69 1 0 0 0 0.5 0.5 1
ITEM: TIMESTEP
70
ITEM: NUMBER OF ATOMS
2
ITEM: BOX BOUNDS pp pp pp
-2.0000000000000000e+00 2.0000000000000000e+00
-2.0000000000000000e+00 2.0000000000000000e+00
-4.0000000000000000e+00 4.0000000000000000e+00
ITEM: ATOMS id type x y z quatw quati quatj quatk shapex shapey shapez
2 0 0 0 -0.3 0.923785 0.382911 0 0 0.5 1 0.5
1 1 0 0 1.7 1 0 0 0 0.5 0.5 1
ITEM: TIMESTEP
71
ITEM: NUMBER OF ATOMS
2
ITEM: BOX BOUNDS pp pp pp
-2.0000000000000000e+00 2.0000000000000000e+00
-2.0000000000000000e+00 2.0000000000000000e+00
-4.0000000000000000e+00 4.0000000000000000e+00
ITEM: ATOMS id type x y z quatw quati quatj quatk shapex shapey shapez
2 0 0 0 -0.29 0.923785 0.382911 0 0 0.5 1 0.5
1 1 0 0 1.71 1 0 0 0 0.5 0.5 1
ITEM: TIMESTEP
72
ITEM: NUMBER OF ATOMS
2
ITEM: BOX BOUNDS pp pp pp
-2.0000000000000000e+00 2.0000000000000000e+00
-2.0000000000000000e+00 2.0000000000000000e+00
-4.0000000000000000e+00 4.0000000000000000e+00
ITEM: ATOMS id type x y z quatw quati quatj quatk shapex shapey shapez
2 0 0 0 -0.28 0.923785 0.382911 0 0 0.5 1 0.5
1 1 0 0 1.72 1 0 0 0 0.5 0.5 1
ITEM: TIMESTEP
73
ITEM: NUMBER OF ATOMS
2
ITEM: BOX BOUNDS pp pp pp
-2.0000000000000000e+00 2.0000000000000000e+00
-2.0000000000000000e+00 2.0000000000000000e+00
-4.0000000000000000e+00 4.0000000000000000e+00
ITEM: ATOMS id type x y z quatw quati quatj quatk shapex shapey shapez
2 0 0 0 -0.27 0.923785 0.382911 0 0 0.5 1 0.5
1 1 0 0 1.73 1 0 0 0 0.5 0.5 1
ITEM: TIMESTEP
74
ITEM: NUMBER OF ATOMS
2
ITEM: BOX BOUNDS pp pp pp
-2.0000000000000000e+00 2.0000000000000000e+00
-2.0000000000000000e+00 2.0000000000000000e+00
-4.0000000000000000e+00 4.0000000000000000e+00
ITEM: ATOMS id type x y z quatw quati quatj quatk shapex shapey shapez
2 0 0 0 -0.26 0.923785 0.382911 0 0 0.5 1 0.5
1 1 0 0 1.74 1 0 0 0 0.5 0.5 1
ITEM: TIMESTEP
75
ITEM: NUMBER OF ATOMS
2
ITEM: BOX BOUNDS pp pp pp
-2.0000000000000000e+00 2.0000000000000000e+00
-2.0000000000000000e+00 2.0000000000000000e+00
-4.0000000000000000e+00 4.0000000000000000e+00
ITEM: ATOMS id type x y z quatw quati quatj quatk shapex shapey shapez
2 0 0 0 -0.25 0.923785 0.382911 0 0 0.5 1 0.5
1 1 0 0 1.75 1 0 0 0 0.5 0.5 1
ITEM: TIMESTEP
76
ITEM: NUMBER OF ATOMS
2
ITEM: BOX BOUNDS pp pp pp
-2.0000000000000000e+00 2.0000000000000000e+00
-2.0000000000000000e+00 2.0000000000000000e+00
-4.0000000000000000e+00 4.0000000000000000e+00
ITEM: ATOMS id type x y z quatw quati quatj quatk shapex shapey shapez
2 0 0 0 -0.24 0.923785 0.382911 0 0 0.5 1 0.5
1 1 0 0 1.76 1 0 0 0 0.5 0.5 1
ITEM: TIMESTEP
77
ITEM: NUMBER OF ATOMS
2
ITEM: BOX BOUNDS pp pp pp
-2.0000000000000000e+00 2.0000000000000000e+00
-2.0000000000000000e+00 2.0000000000000000e+00
-4.0000000000000000e+00 4.0000000000000000e+00
ITEM: ATOMS id type x y z quatw quati quatj quatk shapex shapey shapez
2 0 0 0 -0.23 0.923785 0.382911 0 0 0.5 1 0.5
1 1 0 0 1.77 1 0 0 0 0.5 0.5 1
ITEM: TIMESTEP
78
ITEM: NUMBER OF ATOMS
2
ITEM: BOX BOUNDS pp pp pp
-2.0000000000000000e+00 2.0000000000000000e+00
-2.0000000000000000e+00 2.0000000000000000e+00
-4.0000000000000000e+00 4.0000000000000000e+00
ITEM: ATOMS id type x y z quatw quati quatj quatk shapex shapey shapez
2 0 0 0 -0.22 0.923785 0.382911 0 0 0.5 1 0.5
1 1 0 0 1.78 1 0 0 0 0.5 0.5 1
ITEM: TIMESTEP
79
ITEM: NUMBER OF ATOMS
2
ITEM: BOX BOUNDS pp pp pp
-2.0000000000000000e+00 2.0000000000000000e+00
-2.0000000000000000e+00 2.0000000000000000e+00
-4.0000000000000000e+00 4.0000000000000000e+00
ITEM: ATOMS id type x y z quatw quati quatj quatk shapex shapey shapez
2 0 0 0 -0.21 0.923785 0.382911 0 0 0.5 1 0.5
1 1 0 0 1.79 1 0 0 0 0.5 0.5 1
ITEM: TIMESTEP
80
ITEM: NUMBER OF ATOMS
2
ITEM: BOX BOUNDS pp pp pp
-2.0000000000000000e+00 2.0000000000000000e+00
-2.0000000000000000e+00 2.0000000000000000e+00
-4.0000000000000000e+00 4.0000000000000000e+00
ITEM: ATOMS id type x y z quatw quati quatj quatk shapex shapey shapez
2 0 0 0 -0.2 0.923785 0.382911 0 0 0.5 1 0.5
1 1 0 0 1.8 1 0 0 0 0.5 0.5 1
ITEM: TIMESTEP
81
ITEM: NUMBER OF ATOMS
2
ITEM: BOX BOUNDS pp pp pp
-2.0000000000000000e+00 2.0000000000000000e+00
-2.0000000000000000e+00 2.0000000000000000e+00
-4.0000000000000000e+00 4.0000000000000000e+00
ITEM: ATOMS id type x y z quatw quati quatj quatk shapex shapey shapez
2 0 0 0 -0.19 0.923785 0.382911 0 0 0.5 1 0.5
1 1 0 0 1.81 1 0 0 0 0.5 0.5 1
ITEM: TIMESTEP
82
ITEM: NUMBER OF ATOMS
2
ITEM: BOX BOUNDS pp pp pp
-2.0000000000000000e+00 2.0000000000000000e+00
-2.0000000000000000e+00 2.0000000000000000e+00
-4.0000000000000000e+00 4.0000000000000000e+00
ITEM: ATOMS id type x y z quatw quati quatj quatk shapex shapey shapez
2 0 0 0 -0.18 0.923785 0.382911 0 0 0.5 1 0.5
1 1 0 0 1.82 1 0 0 0 0.5 0.5 1
ITEM: TIMESTEP
83
ITEM: NUMBER OF ATOMS
2
ITEM: BOX BOUNDS pp pp pp
-2.0000000000000000e+00 2.0000000000000000e+00
-2.0000000000000000e+00 2.0000000000000000e+00
-4.0000000000000000e+00 4.0000000000000000e+00
ITEM: ATOMS id type x y z quatw quati quatj quatk shapex shapey shapez
2 0 0 0 -0.17 0.923785 0.382911 0 0 0.5 1 0.5
1 1 0 0 1.83 1 0 0 0 0.5 0.5 1
ITEM: TIMESTEP
84
ITEM: NUMBER OF ATOMS
2