LAMMPS (2 Aug 2023 - Development - stable_17Nov2016-25573-gb28a29a97a-modified)
