ITEM: TIMESTEP
0
ITEM: NUMBER OF ATOMS
16
ITEM: BOX BOUNDS pp pp pp
-2.0000000000000000e+01 2.0000000000000000e+01
-2.0000000000000000e+01 2.0000000000000000e+01
-2.0000000000000000e+01 2.0000000000000000e+01
ITEM: ATOMS id mol type x y z ix iy iz vx vy vz c_quat[1] c_quat[2] c_quat[3] c_quat[4] angmomx angmomy angmomz
1 1 1 -6.133472972454725e-01 -6.574781716697660e-01  3.606522635120190e-01 0 0 0  5.386890022865587e-02  2.262922525602673e-02  2.488229114473675e-01  9.964752158482045e-01 -5.325355573323980e-02  1.139116380710251e-02 -6.380787090289707e-02  1.772010258006941e-01 -2.958853170000101e-01 -2.624137503614725e-01
2 1 2 -4.526276424735636e-01 -1.003065053434591e+00  7.258693379233347e-01 0 0 0 -3.995003075629463e-02  2.696951106370198e-01 -1.898645454819566e-01  9.369923833143513e-01  1.122071604464856e-01  6.732538499716349e-02  3.239168400846305e-01 -3.061453937596818e-02 -1.176951893148060e-01  4.007470242647321e-02
3 1 3 -9.883421085226410e-02 -1.239775807128057e+00  1.069462285786363e+00 0 0 0 -2.078453529520138e-01 -1.362872235767304e-01 -6.062477950201746e-02  7.979649320918270e-01  1.447309635452787e-01  1.837414269936639e-01  5.554673737937029e-01 -3.676034584820381e-02 -6.308707793373186e-02 -1.479860157608762e-01
4 1 4  2.937771854299732e-01 -1.257975092489984e+00  1.425891608660697e+00 0 0 0 -2.396982418131700e-01 -5.624721730878831e-01  3.247442290503672e-02  5.660864821344559e-01  1.468827549948105e-01  9.873742533340191e-02  8.051226439917721e-01 -1.652364596501651e-01  2.860623077030974e-01  3.354351975310588e-01
5 1 1  6.286896795685137e-01 -1.018334339511974e+00  1.768934633967282e+00 0 0 0 -1.611489735682835e-01 -2.288969747076015e-01 -1.355332496264956e-01  2.533023785125306e-01  1.206231316167983e-01  8.583012223905846e-02  9.559922359911086e-01  7.151030852881342e-02 -9.415592891043179e-02  1.342288153931229e-01
6 1 2  7.901522619067926e-01 -6.766341805565266e-01  2.154016070549575e+00 0 0 0 -4.701706588477693e-02  1.921671558511004e-01  1.458824279129722e-01 -3.855807343534716e-02  8.405913137017908e-02  2.236505169306371e-02  9.954632800204194e-01  9.218622989776322e-02 -5.640128930702024e-01  9.287105657777776e-02
7 1 3  7.115777184886863e-01 -4.019557932514345e-01  2.569568683291525e+00 0 0 0  5.098438305112513e-02 -3.845955552200959e-02 -1.424419628574967e-01 -4.559284433024802e-01  1.004550065061007e-01 -5.252474529475878e-02  8.827679181910482e-01  3.479046835475834e-01  4.244922695910593e-01 -1.358288260435836e-01
8 1 4  4.697331037700523e-01 -3.025169796710703e-01  3.066800711751922e+00 0 0 0  3.782797134841193e-01 -4.953992506010833e-02  1.626392045834847e-01  7.680212215404908e-01 -9.582139884533597e-03  3.658677589040892e-02 -6.393066507464399e-01  4.428876596361290e-02  7.868414126013584e-02 -1.271360044432503e-01
9 2 1  4.056113349449848e-01 -1.443775499211898e+00  3.059072650334112e+00 0 0 0  4.912038408665491e-02  4.126064731871670e-02  1.222385633449523e-02 -2.329997575451234e-01  6.886863952313410e-01  6.747873944883376e-01 -1.268232401684158e-01  3.282916621721876e-02 -1.267054709525600e-04  1.559787854176960e-01
10 2 2 -3.202842905928752e-02 -1.294752097116472e+00  2.720107115139219e+00 0 0 0  1.939216183073483e-01  1.107523548538194e-01 -4.050505160199710e-02 -2.466206187190723e-01  8.744456399178389e-01  3.937083608782400e-01 -1.397026120939516e-01 -1.700813500181381e-01 -4.563093565840761e-01 -3.031851362703951e-01
11 2 3 -3.161385511231407e-01 -9.084141759061610e-01  2.412520787178201e+00 0 0 0 -3.513607339206460e-01 -1.882241906753569e-01  3.614793819905130e-01 -8.747590085090901e-02  9.773676023882290e-01  1.449354911309558e-01 -1.268630757266878e-01 -3.708221604627426e-01 -4.910838182594122e-01  9.435948331955418e-02
12 2 4 -3.893939125182100e-01 -4.866605488242819e-01  2.006177777000426e+00 0 0 0 -1.188642917357977e-01  2.235528245655188e-01  9.265586122144348e-03 -3.181169300779214e-02  9.634374984140114e-01 -2.442360692534372e-01 -1.054748563087919e-01 -2.823010018885836e-01  1.027648566082889e-01  1.017523347678070e-01
13 3 1 -6.232643040853296e-02 -7.155965522127403e-02  1.559320605273073e+00 0 0 0 -1.446616296238799e-01 -1.155205990978724e-01  1.331477187595642e-01 -3.278607069657226e-02  7.922941528811774e-01 -6.084214170523914e-01 -3.191282109962716e-02 -2.549872189037434e-01  2.754663721641154e-01  5.806416868630132e-02
14 3 2  1.788409039091338e-01 -5.516721349427172e-02  1.021273149730912e+00 0 0 0  5.154712003586254e-02 -3.661102651077563e-01 -6.630782880801242e-02  4.718868628834144e-02  6.316396208287697e-01 -7.737349519945346e-01  1.178309584462780e-02 -1.199984717331652e-01  6.844768922886051e-02  2.161595932308759e-01
15 3 3  4.513439961906000e-01 -2.379560738327457e-01  5.957328539615993e-01 0 0 0 -2.021424496209139e-01  2.334122693355961e-01  8.133374252278069e-03 -5.869980642620334e-02 -3.422935820341442e-01  9.376740835056506e-01  1.251996587850869e-02 -1.701391112413525e-01  1.870292260510287e-02 -2.682954134361106e-01
16 3 4  5.077649359807965e-01 -5.565625134533538e-01  1.655875784458841e-01 0 0 0 -1.920213116286801e-01 -8.105295741355378e-02 -4.693508108850740e-02 -8.582818143150042e-02  8.707732197394232e-04  9.939540921464659e-01 -6.846917358531610e-02  1.733210765264759e-02 -3.287658886280769e-01  1.085334141225924e-01
ITEM: TIMESTEP
1000
ITEM: NUMBER OF ATOMS
16
ITEM: BOX BOUNDS pp pp pp
-2.0000000000000000e+01 2.0000000000000000e+01
-2.0000000000000000e+01 2.0000000000000000e+01
-2.0000000000000000e+01 2.0000000000000000e+01
ITEM: ATOMS id mol type x y z ix iy iz vx vy vz c_quat[1] c_quat[2] c_quat[3] c_quat[4] angmomx angmomy angmomz
1 1 1 -6.128549084971792e-01 -6.572778389826508e-01  3.630256772445071e-01 0 0 0  4.461491464448589e-02  1.742890081010585e-02  2.254011115551927e-01  9.964225228468881e-01 -5.088418732510772e-02  8.586528456690607e-03 -6.692702722195755e-02  1.959716663625363e-01 -2.454036332123665e-01 -2.580712798984205e-01
2 1 2 -4.530727282086400e-01 -1.000382591676181e+00  7.238959244812394e-01 0 0 0 -4.908356503153462e-02  2.664868223946432e-01 -2.040896799538223e-01  9.369690902150162e-01  1.113064271958011e-01  6.645783771632018e-02  3.244736646518822e-01 -5.984900464884796e-02 -8.584327093576358e-02  4.544573479286618e-02
3 1 3 -1.009360928754060e-01 -1.241078285755406e+00  1.069072495128872e+00 0 0 0 -2.124932303671417e-01 -1.242198281398301e-01 -1.729511454608774e-02  7.990976259150268e-01  1.445351294710602e-01  1.827304223837652e-01  5.542221335720927e-01  3.890683615948341e-02 -1.011519795104611e-01 -1.535662397042399e-01
4 1 4  2.913983135261744e-01 -1.263500395075815e+00  1.426135548475712e+00 0 0 0 -2.359601410381195e-01 -5.423877375980807e-01  1.656220654282882e-02  5.629475459940886e-01  1.479088227448292e-01  1.028105619143767e-01  8.066244658899968e-01 -1.977714281992012e-01  2.746749076720455e-01  3.384313136704041e-01
5 1 1  6.271447190559768e-01 -1.020673018070836e+00  1.767554455518954e+00 0 0 0 -1.478971694710206e-01 -2.385785049357757e-01 -1.400566196217559e-01  2.518063870255293e-01  1.196777057339832e-01  8.494980349654171e-02  9.565847171522753e-01  7.368380324486133e-02 -9.153344484330748e-02  1.364355268419325e-01
6 1 2  7.897750783659770e-01 -6.747406221597735e-01  2.155542246720033e+00 0 0 0 -2.887011055149660e-02  1.861432790880952e-01  1.602113569861982e-01 -3.969346429121411e-02  7.777233921802008e-02  2.166678310052977e-02  9.959449998143441e-01  8.912467144193213e-02 -5.212678429309586e-01  1.148109169221671e-01
7 1 3  7.121272467191069e-01 -4.022657608468133e-01  2.568261988782420e+00 0 0 0  5.917049332519807e-02 -2.345036545541105e-02 -1.185592461285233e-01 -4.546762283472510e-01  1.029346182198311e-01 -5.832514839075011e-02  8.827639371955863e-01  3.243417697689077e-01  4.284238475768612e-01 -1.345024307723210e-01
8 1 4  4.735330501384055e-01 -3.030012684615133e-01  3.068421888897273e+00 0 0 0  3.816379395013086e-01 -4.730160771285408e-02  1.615095266797624e-01  7.670129768779215e-01 -9.812093545376743e-03  3.759763271775170e-02 -6.404539281908940e-01  2.863622222931551e-02  8.662915575060785e-02 -1.387461169841241e-01
9 2 1  4.060804714471385e-01 -1.443400459120393e+00  3.059079392801767e+00 0 0 0  4.474144969938923e-02  3.374763423896310e-02 -1.085834601016069e-02 -2.329171793618819e-01  6.874205618854752e-01  6.760548841369313e-01 -1.270919048946976e-01  5.155487730260173e-03 -9.347099972135663e-04  1.571310515364120e-01
10 2 2 -3.011373445939235e-02 -1.293648272878998e+00  2.719688755685461e+00 0 0 0  1.886684375584800e-01  1.099467663424473e-01 -4.328251175787843e-02 -2.431705352382576e-01  8.770016692518816e-01  3.917513136283450e-01 -1.351557294080374e-01 -2.011301676570173e-01 -4.497265749600016e-01 -2.805325517948295e-01
11 2 3 -3.197730089842832e-01 -9.102607940246381e-01  2.416065979452401e+00 0 0 0 -3.749587289981450e-01 -1.807562818463264e-01  3.462651494652887e-01 -8.242192546207107e-02  9.782747368434789e-01  1.458384578921736e-01 -1.221323448418966e-01 -3.638377247180116e-01 -4.732755968101808e-01  7.598513171770067e-02
12 2 4 -3.906219052690390e-01 -4.844318224803173e-01  2.006350410247795e+00 0 0 0 -1.266379036646530e-01  2.218806607625171e-01  2.513755236480706e-02 -2.831390190195798e-02  9.637076465408443e-01 -2.434474706126581e-01 -1.058263861713732e-01 -2.762227554202251e-01  9.574530872460399e-02  1.079987152931049e-01
13 3 1 -6.375750649598731e-02 -7.280733239079683e-02  1.560554391135637e+00 0 0 0 -1.416536709948911e-01 -1.341060476440116e-01  1.132364326470543e-01 -2.858859393600196e-02  7.926979450508473e-01 -6.080609091039595e-01 -3.278095527273110e-02 -2.316561092413641e-01  2.845763564567878e-01  6.242636323803250e-02
14 3 2  1.793743832609659e-01 -5.886369049462182e-02  1.020588498357522e+00 0 0 0  5.500858225156629e-02 -3.729579801101793e-01 -7.064662950208887e-02  4.848917966992895e-02  6.335341413339552e-01 -7.720947172354351e-01  1.237088664239977e-02 -8.974241385745918e-02  5.944615367876938e-02  2.212914533716891e-01
15 3 3  4.493556544062146e-01 -2.356149586326459e-01  5.958942522985934e-01 0 0 0 -1.953938344561351e-01  2.346469293771062e-01  2.384595214331692e-02 -5.968008909297526e-02 -3.392720059927729e-01  9.387312000667690e-01  1.079476431878514e-02 -2.025445775754325e-01  3.390588605616630e-02 -2.678044057703607e-01
16 3 4  5.058657347559220e-01 -5.573670264867790e-01  1.651747711313987e-01 0 0 0 -1.878814247179794e-01 -7.961691600248769e-02 -3.552475552275787e-02 -8.205630020182447e-02 -1.365164455284676e-04  9.942807308585562e-01 -6.835622286100815e-02  2.041038471570584e-02 -3.164696240118293e-01  1.086400411233051e-01
ITEM: TIMESTEP
2000
ITEM: NUMBER OF ATOMS
16
ITEM: BOX BOUNDS pp pp pp
-2.0000000000000000e+01 2.0000000000000000e+01
-2.0000000000000000e+01 2.0000000000000000e+01
-2.0000000000000000e+01 2.0000000000000000e+01
ITEM: ATOMS id mol type x y z ix iy iz vx vy vz c_quat[1] c_quat[2] c_quat[3] c_quat[4] angmomx angmomy angmomz
1 1 1 -6.124549454213245e-01 -6.571293641247985e-01  3.651512105693708e-01 0 0 0  3.537500850093282e-02  1.229746634222107e-02  1.992530294897760e-01  9.963567289129244e-01 -4.834003900028356e-02  6.382997313140337e-03 -6.996975578554517e-02  2.145173172667184e-01 -1.930184460069245e-01 -2.548406641724493e-01
2 1 2 -4.536090623410155e-01 -9.977416570571965e-01  7.218039552883644e-01 0 0 0 -5.814317845075679e-02  2.613785316899251e-01 -2.133961346658282e-01  9.369390289844974e-01  1.102180446780640e-01  6.601788961933051e-02  3.250213482882951e-01 -8.515816060396811e-02 -5.851449720389280e-02  4.935057842872807e-02
3 1 3 -1.030835415577417e-01 -1.242260261465242e+00  1.069115989225974e+00 0 0 0 -2.169797402942915e-01 -1.121714692537914e-01  2.591724266801516e-02  8.002134247013756e-01  1.448000571054896e-01  1.808816274284935e-01  5.531484929462995e-01  1.138410481931010e-01 -1.389048364417002e-01 -1.581264543584482e-01
4 1 4  2.890603043648998e-01 -1.268819122368723e+00  1.426228158447747e+00 0 0 0 -2.315258868956808e-01 -5.211850280618336e-01  2.240050881462860e-03  5.598456179892813e-01  1.486279386056307e-01  1.070929899255688e-01  8.080926378781350e-01 -2.261795179477568e-01  2.637059861957172e-01  3.378034705171270e-01
5 1 1  6.257302819650475e-01 -1.023100383323392e+00  1.766142638736871e+00 0 0 0 -1.350805312365664e-01 -2.466028594573549e-01 -1.418416295115628e-01  2.502793007153079e-01  1.187841295048160e-01  8.405623244616348e-02  9.571756118906271e-01  7.661556376402735e-02 -8.559631137071357e-02  1.382772045913112e-01
6 1 2  7.895661891323918e-01 -6.729188526508746e-01  2.157235436768942e+00 0 0 0 -1.331707078801526e-02  1.778602775631524e-01  1.790705581759799e-01 -4.108263474731048e-02  7.203477540851269e-02  2.101028956715488e-02  9.963341688341161e-01  8.425092148525747e-02 -4.672616628231462e-01  1.359165120483496e-01
7 1 3  7.127655878121509e-01 -4.024232184409284e-01  2.567203388535840e+00 0 0 0  6.869353877423498e-02 -7.965671732416931e-03 -9.290877780134096e-02 -4.534013793816186e-01  1.055804297085228e-01 -6.388932219966219e-02  8.827219927849750e-01  2.985470423199345e-01  4.321634337921163e-01 -1.304484239989609e-01
8 1 4  4.773643596959767e-01 -3.034625569385198e-01  3.070029249257929e+00 0 0 0  3.845455183263742e-01 -4.492704629410208e-02  1.598835406079100e-01  7.659093576102193e-01 -1.023030904472710e-02  3.856983190604805e-02 -6.417090966853205e-01  1.398108369301248e-02  9.494830767387052e-02 -1.508871626858237e-01
9 2 1  4.065069643634932e-01 -1.443100604669528e+00  3.058856020540829e+00 0 0 0  4.060251491532983e-02  2.621729046471508e-02 -3.377911561438667e-02 -2.326092638046552e-01  6.862238771633312e-01  6.772864693037137e-01 -1.275647259288062e-01 -2.173543438140366e-02 -2.291926495271674e-03  1.568017207917421e-01
10 2 2 -2.826163439132937e-02 -1.292554536848826e+00  2.719239721801014e+00 0 0 0  1.814435886513152e-01  1.087278269850353e-01 -4.658324309355749e-02 -2.393882123760347e-01  8.794856088146867e-01  3.899534013584116e-01 -1.308995509246382e-01 -2.337303538453042e-01 -4.397144209222320e-01 -2.539746410567814e-01
11 2 3 -3.236265385116022e-01 -9.120229586452612e-01  2.419422298871489e+00 0 0 0 -3.952075896131438e-01 -1.713871694621237e-01  3.239253397586137e-01 -7.749662548978960e-02  9.791277990387730e-01  1.465164085935194e-01 -1.176263924467660e-01 -3.585539191642557e-01 -4.454601996593189e-01  5.788067305651173e-02
12 2 4 -3.919244121639820e-01 -4.822293319628999e-01  2.006677366492168e+00 0 0 0 -1.337352214989842e-01  2.182898983019007e-01  4.006358997062687e-02 -2.489933814338238e-02  9.639872330171851e-01 -2.425820356398259e-01 -1.061253670181210e-01 -2.691707733064693e-01  8.994183629633234e-02  1.132332821017713e-01
13 3 1 -6.516155591045675e-02 -7.424329126017976e-02  1.561578391643254e+00 0 0 0 -1.392603693780814e-01 -1.531463437691080e-01  9.124427345204528e-02 -2.455307991724017e-02  7.931012126155577e-01 -6.076493878176240e-01 -3.390920670226229e-02 -2.049006381778060e-01  2.939464400909189e-01  6.542877503447374e-02
14 3 2  1.799383964660047e-01 -6.262194617416414e-02  1.019860217258161e+00 0 0 0  5.766590015457488e-02 -3.784772535020894e-01 -7.498450002563845e-02  4.948435704993748e-02  6.354792393611663e-01 -7.704250624942810e-01  1.275373784390230e-02 -5.851770507892286e-02  5.040206122911987e-02  2.251276855563558e-01
15 3 3  4.474384993844588e-01 -2.332665045054534e-01  5.962028193883618e-01 0 0 0 -1.879309832869550e-01  2.348707698975134e-01  3.747369144239768e-02 -6.092875515926895e-02 -3.362381201058164e-01  9.397629236639463e-01  8.789805972855768e-03 -2.316478755022723e-01  4.618791075435013e-02 -2.653982330608205e-01
16 3 4  5.040059943758787e-01 -5.581504898664938e-01  1.648783773866897e-01 0 0 0 -1.841334601909787e-01 -7.687349614271516e-02 -2.372153039313844e-02 -7.843222824575498e-02 -1.143447170619984e-03  9.945824608812910e-01 -6.821148443106355e-02  2.254883788116147e-02 -3.029457426785272e-01  1.063041239671573e-01
ITEM: TIMESTEP
3000
ITEM: NUMBER OF ATOMS
16
ITEM: BOX BOUNDS pp pp pp
-2.0000000000000000e+01 2.0000000000000000e+01
-2.0000000000000000e+01 2.0000000000000000e+01
-2.0000000000000000e+01 2.0000000000000000e+01
ITEM: ATOMS id mol type x y z ix iy iz vx vy vz c_quat[1] c_quat[2] c_quat[3] c_quat[4] angmomx angmomy angmomz
1 1 1 -6.121476130792605e-01 -6.570308799207614e-01  3.670016336757460e-01 0 0 0  2.607280998999916e-02  7.467857604186839e-03  1.703723855464208e-01  9.962799364967498e-01 -4.562701310636708e-02  4.802029977435336e-03 -7.294795622304606e-02  2.328238221047529e-01 -1.389474869542145e-01 -2.523804004196760e-01
2 1 2 -4.542342925601278e-01 -9.951614693961921e-01  7.196477340090046e-01 0 0 0 -6.681504718095271e-02  2.543386357891830e-01 -2.167903272457755e-01  9.369065009045051e-01  1.089723385331542e-01  6.593142229384523e-02  3.255522777555132e-01 -1.054878144940277e-01 -3.693019854177860e-02  5.138727011348575e-02
3 1 3 -1.052755168947235e-01 -1.243321561744169e+00  1.069588163725349e+00 0 0 0 -2.214139909722330e-01 -1.000792101709651e-01  6.832554147276536e-02  8.013020232134178e-01  1.455146254441077e-01  1.782097355594132e-01  5.522516197602215e-01  1.868391058650128e-01 -1.760588301458751e-01 -1.611496276366716e-01
4 1 4  2.867700958039968e-01 -1.273920887690170e+00  1.426186214902975e+00 0 0 0 -2.264019394484052e-01 -4.990190827371638e-01 -1.032346522590498e-02  5.568070528874787e-01  1.490778667871684e-01  1.115419182703458e-01  8.095060814827271e-01 -2.500261575206205e-01  2.532918851856348e-01  3.335017044194437e-01
5 1 1  6.244409894345088e-01 -1.025598962542120e+00  1.764726999034791e+00 0 0 0 -1.228981893970456e-01 -2.527945634700582e-01 -1.408170249808556e-01  2.487215760838818e-01  1.179816914426687e-01  8.314997240115747e-02  9.577598760463729e-01  8.029727274959939e-02 -7.632206070103409e-02  1.396376812603335e-01
6 1 2  7.895011471330777e-01 -6.711898705638789e-01  2.159134120859504e+00 0 0 0 -4.004439111311075e-05  1.676406460144172e-01  2.010692694708165e-01 -4.271449511451626e-02  6.696351061342583e-02  2.040779608767795e-02  9.966317685144708e-01  7.773708100711318e-02 -4.044867336164722e-01  1.557299473909799e-01
7 1 3  7.135044795090326e-01 -4.024236112498961e-01  2.566408033852086e+00 0 0 0  7.922528705271727e-02  7.958763725600806e-03 -6.599094309326979e-02 -4.521272567533460e-01  1.083997305348256e-01 -6.919256219707161e-02  8.826340303077349e-01  2.711925495706386e-01  4.352488757714762e-01 -1.241101174518032e-01
8 1 4  4.812223315150381e-01 -3.038991097907651e-01  3.071618038448138e+00 0 0 0  3.869646089738243e-01 -4.234286006138143e-02  1.578006470966194e-01  7.647053769185491e-01 -1.083007722513716e-02  3.951387553799756e-02 -6.430762393209105e-01  3.633711148226489e-04  1.036268116431699e-01 -1.636273869643701e-01
9 2 1  4.068935321624513e-01 -1.442876289966138e+00  3.058404763120651e+00 0 0 0  3.676653861662983e-02  1.863409225213348e-02 -5.641371932488579e-02 -2.320809414579385e-01  6.851064108397755e-01  6.784728896483490e-01 -1.282270659824081e-01 -4.770145371766350e-02 -4.213445820631300e-03  1.549602877480091e-01
10 2 2 -2.649060438574646e-02 -1.291475269350190e+00  2.718756455204907e+00 0 0 0  1.724959909812153e-01  1.070422681888626e-01 -5.007551918397920e-02 -2.352703612386099e-01  8.818806665740445e-01  3.883431439637399e-01 -1.269801149075358e-01 -2.672817337634809e-01 -4.268328214387216e-01 -2.242155705904438e-01
11 2 3 -3.276668714586328e-01 -9.136833093227210e-01  2.422525508745162e+00 0 0 0 -4.123704307991566e-01 -1.604487570907618e-01  2.958921355731465e-01 -7.269822554833467e-02  9.799211790530913e-01  1.469632856271394e-01 -1.134515029561036e-01 -3.544992765158290e-01 -4.096214148252504e-01  3.995923363866500e-02
12 2 4 -3.932937803910572e-01 -4.800727134312491e-01  2.007147324892418e+00 0 0 0 -1.399852907010167e-01  2.126932402877960e-01  5.368559143682283e-02 -2.157695916661346e-02  9.642719876948662e-01 -2.416508922043751e-01 -1.063899190569466e-01 -2.609969872748301e-01  8.575225943811604e-02  1.173736613847807e-01
13 3 1 -6.654480023799625e-02 -7.587118111611066e-02  1.562373491261928e+00 0 0 0 -1.374920978258891e-01 -1.724636858139020e-01  6.751790228158806e-02 -2.070753334078471e-02  7.934954765100010e-01 -6.071973048038322e-01 -3.532081341176913e-02 -1.752813771728790e-01  3.034605244091517e-01  6.718186249105579e-02
14 3 2  1.805252444100580e-01 -6.642901129303772e-02  1.019089864819292e+00 0 0 0  5.958595461346326e-02 -3.827286075361755e-01 -7.900281254502406e-02  5.016943800671697e-02  6.374642938992875e-01 -7.687361275335738e-01  1.292546781583192e-02 -2.693433989593572e-02  4.149937665689278e-02  2.276462070909266e-01
15 3 3  4.455989070018521e-01 -2.309211041444897e-01  5.966349769073382e-01 0 0 0 -1.799063934613176e-01  2.340260353780395e-01  4.847876245993239e-02 -6.239489034608553e-02 -3.332148148308219e-01  9.407614586953467e-01  6.530135478273143e-03 -2.566554433240355e-01  5.478616833572923e-02 -2.610971817074146e-01
16 3 4  5.021817596772743e-01 -5.589007915448966e-01  1.647004806071126e-01 0 0 0 -1.807757283614094e-01 -7.301904879088314e-02 -1.187203839704097e-02 -7.496851822649943e-02 -2.123541198965107e-03  9.948594690788116e-01 -6.804299105656912e-02  2.384977602371907e-02 -2.887565922748546e-01  1.018209263091619e-01
ITEM: TIMESTEP
4000
ITEM: NUMBER OF ATOMS
16
ITEM: BOX BOUNDS pp pp pp
-2.0000000000000000e+01 2.0000000000000000e+01
-2.0000000000000000e+01 2.0000000000000000e+01
-2.0000000000000000e+01 2.0000000000000000e+01
ITEM: ATOMS id mol type x y z ix iy iz vx vy vz c_quat[1] c_quat[2] c_quat[3] c_quat[4] angmomx angmomy angmomz
1 1 1 -6.119339109020004e-01 -6.569784921889800e-01  3.685494976604317e-01 0 0 0  1.665717454857477e-02  3.073692700861374e-03  1.387547430076917e-01  9.961933206870629e-01 -4.275115582407455e-02  3.863019186902677e-03 -7.587017580676840e-02  2.508697294881323e-01 -8.335924983009507e-02 -2.505215850499763e-01
2 1 2 -4.549432195377172e-01 -9.926611527946542e-01  7.174904556614716e-01 0 0 0 -7.484644871316515e-02  2.454217360766701e-01 -2.135032547862545e-01  9.368764648565251e-01  1.076060090456065e-01  6.610827130468522e-02  3.260569472965169e-01 -1.199772773697848e-01 -2.207532547117271e-02  5.127494296617328e-02
3 1 3 -1.075119130541676e-01 -1.244261691098742e+00  1.070477424748703e+00 0 0 0 -2.258750889713442e-01 -8.794289332281355e-02  1.092080342691405e-01  8.023495216241852e-01  1.466568598971638e-01  1.747405091294794e-01  5.515367304756003e-01  2.565972801561489e-01 -2.122805778281849e-01 -1.621868736633386e-01
4 1 4  2.845345128830412e-01 -1.278796728575995e+00  1.426028015653699e+00 0 0 0 -2.206040217936771e-01 -4.760196867306443e-01 -2.098937582054117e-02  5.538577694344843e-01  1.493000697744231e-01  1.161114606238785e-01  8.108447379826791e-01 -2.689709555954199e-01  2.435309413836148e-01  3.255227122248369e-01
5 1 1  6.232696730776137e-01 -1.028149691102011e+00  1.763335593747430e+00 0 0 0 -1.115078597779334e-01 -2.570127232622810e-01 -1.370071274771999e-01  2.471351118724280e-01  1.173092251263139e-01  8.223160723537945e-02  9.583322727277594e-01  8.466149846357060e-02 -6.382155653857358e-02  1.404100657099583e-01
6 1 2  7.895590007828118e-01 -6.695714417070522e-01  2.161262630403656e+00 0 0 0  1.131852439408557e-02  1.557987474366598e-01  2.248186930675999e-01 -4.457307450424092e-02  6.264672665541342e-02  1.986977223323583e-02  9.968419236870011e-01  6.983164539732359e-02 -3.354093459170704e-01  1.739295037573088e-01
7 1 3  7.143523645290181e-01 -4.022626171424102e-01  2.565886234364690e+00 0 0 0  9.043904265569229e-02  2.431167476600457e-02 -3.827252245888074e-02 -4.508735812852350e-01  1.113917709464870e-01 -7.421497328426392e-02  8.824947732450590e-01  2.429122264317599e-01  4.372535819434248e-01 -1.159724541816366e-01
8 1 4  4.851019178056148e-01 -3.043084952394968e-01  3.073183820307784e+00 0 0 0  3.888636978349453e-01 -3.948328626332164e-02  1.552845817943631e-01  7.633954288132563e-01 -1.160414838275138e-02  4.044051629530634e-02 -6.445597936957477e-01 -1.215775558099090e-02  1.126496981827945e-01 -1.770219263580796e-01
9 2 1  4.072434988041778e-01 -1.442728203783280e+00  3.057729151677854e+00 0 0 0  3.329145163052451e-02  1.096677799052041e-02 -7.862623542803279e-02 -2.313381951530586e-01  6.840779602708972e-01  6.796048443640281e-01 -1.290629274884132e-01 -7.258395091375158e-02 -6.709866315351014e-03  1.515872279778332e-01
10 2 2 -2.481664420375108e-02 -1.290415493158363e+00  2.718238601555115e+00 0 0 0  1.620688607379142e-01  1.048157086675959e-01 -5.345165147145962e-02 -2.308182102701345e-01  8.841725276845802e-01  3.869446795659547e-01 -1.234330184802801e-01 -3.012236403845079e-01 -4.116352853038129e-01 -1.919690501055404e-01
11 2 3 -3.318646623951787e-01 -9.152277459244204e-01  2.425326003446806e+00 0 0 0 -4.267456217193977e-01 -1.482519802122736e-01  2.636097631546832e-01 -6.802706336141422e-02  9.806527377771013e-01  1.471753888153068e-01 -1.096901612167711e-01 -3.512137936837116e-01 -3.677921720278738e-01  2.210786376812748e-02
12 2 4 -3.947208701462821e-01 -4.779823712405430e-01  2.007745834421726e+00 0 0 0 -1.452626220491164e-01  2.050265219371115e-01  6.573783881050423e-02 -1.835624957198190e-02  9.645570657050647e-01 -2.406659945709463e-01 -1.066423656773597e-01 -2.516120083278132e-01  8.346139464554159e-02  1.203217709513750e-01
13 3 1 -6.791343117664816e-02 -7.769294239676268e-02  1.562924260578553e+00 0 0 0 -1.363330772343851e-01 -1.918948844811336e-01  4.244577135765468e-02 -1.707537619437253e-02  7.938734943918393e-01 -6.067139377774295e-01 -3.703382422213993e-02 -1.434289651611421e-01  3.129873881433196e-01  6.783129025670633e-02
14 3 2  1.811278607917302e-01 -7.027243305107460e-02  1.018282533559549e+00 0 0 0  6.082964082911142e-02 -3.857534721303438e-01 -8.230527387149991e-02  5.054612850856054e-02  6.394778558628091e-01 -7.670379094881928e-01  1.288433785195260e-02  4.277933228076771e-03  3.293350969697543e-02  2.287976470131066e-01
15 3 3  4.438417432511348e-01 -2.285897659483357e-01  5.971620645254522e-01 0 0 0 -1.714703064272932e-01  2.320461551851737e-01  5.638827902839971e-02 -6.401707529525423e-02 -3.302254244829435e-01  9.417200270932743e-01  4.046438822525451e-03 -2.768707354336587e-01  5.904296981428992e-02 -2.549138114142099e-01
16 3 4  5.003892075072401e-01 -5.596077004789836e-01  1.646402456068934e-01 0 0 0 -1.778113082552269e-01 -6.819636478885509e-02 -2.358778347900980e-04 -7.167222779149940e-02 -3.053362105708962e-03  9.951125782719863e-01 -6.785812632349156e-02  2.439304722011736e-02 -2.742985282121774e-01  9.541970420774736e-02
ITEM: TIMESTEP
5000
ITEM: NUMBER OF ATOMS
16
ITEM: BOX BOUNDS pp pp pp
-2.0000000000000000e+01 2.0000000000000000e+01
-2.0000000000000000e+01 2.0000000000000000e+01
-2.0000000000000000e+01 2.0000000000000000e+01
ITEM: ATOMS id mol type x y z ix iy iz vx vy vz c_quat[1] c_quat[2] c_quat[3] c_quat[4] angmomx angmomy angmomz
1 1 1 -6.118148284358019e-01 -6.569679227765555e-01  3.697678309217280e-01 0 0 0  7.130603885975547e-03 -8.713856929910253e-04  1.044688411925162e-01  9.960967611847201e-01 -3.971877772641103e-02  3.582501285974415e-03 -7.874532835519039e-02  2.686249337981366e-01 -2.645326448659966e-02 -2.492939890372748e-01
2 1 2 -4.557284998104906e-01 -9.902587739738659e-01  7.154014701183232e-01 0 0 0 -8.206473479227296e-02  2.347867458397351e-01 -2.030899478836977e-01  9.368544363346261e-01  1.061605239781454e-01  6.644644779925353e-02  3.265250033974071e-01 -1.280579310343850e-01 -1.459165658980805e-02  4.889354944169818e-02
3 1 3 -1.097933080607147e-01 -1.245080493698327e+00  1.071764533903409e+00 0 0 0 -2.304228095792253e-01 -7.583113234352540e-02  1.477487317928033e-01  8.033392893892402e-01  1.481931527602671e-01  1.705124068961676e-01  5.510084343211443e-01  3.216111742688034e-01 -2.471419725178384e-01 -1.608484085052798e-01
4 1 4  2.823601878468862e-01 -1.283438857699656e+00  1.425773179152827e+00 0 0 0 -2.141544769944931e-01 -4.522924823667326e-01 -2.962957285208397e-02  5.510231223014629e-01  1.493388504024805e-01  1.207532766399662e-01  8.120899412197670e-01 -2.827433847950062e-01  2.344955068376517e-01  3.138995181826108e-01
5 1 1  6.222078112167631e-01 -1.030732311645728e+00  1.761995737891672e+00 0 0 0 -1.010223955038022e-01 -2.591609324402777e-01 -1.305359905715684e-01  2.455232535466502e-01  1.168033929268821e-01  8.130203556883973e-02  9.588875212354152e-01  8.958077012318495e-02 -4.834556759647783e-02  1.405121451450279e-01
6 1 2  7.897221300425740e-01 -6.680784030000335e-01  2.163632424643086e+00 0 0 0  2.105768353577925e-02  1.426028644655521e-01  2.491575611678443e-01 -4.663929479810040e-02  5.914622300483630e-02  1.940451849695376e-02  9.969703933151172e-01  6.080092031259730e-02 -2.621020739452498e-01  1.903474894789828e-01
7 1 3  7.153145079548965e-01 -4.019359230598167e-01  2.565643806953792e+00 0 0 0  1.020279758208574e-01  4.110136847405236e-02 -1.018620474578548e-02 -4.496561603319340e-01  1.145482858370943e-01 -7.894129234269061e-02  8.823017057960340e-01  2.142921610459371e-01  4.377877181826390e-01 -1.065357052453514e-01
8 1 4  4.889977883989283e-01 -3.046876655918034e-01  3.074722307607492e+00 0 0 0  3.902179069188270e-01 -3.629104604616867e-02  1.523411433674683e-01  7.619734121376772e-01 -1.254453313904858e-02  4.136093518633668e-02 -6.461643962058732e-01 -2.349761527399272e-02  1.220011960303526e-01 -1.911091124211901e-01
9 2 1  4.075607369082322e-01 -1.442657322483343e+00  3.056834139524948e+00 0 0 0  3.022881692665692e-02  3.189243750444965e-03 -1.002679700244900e-01 -2.303882331290261e-01  6.831479322603924e-01  6.806731181342754e-01 -1.300548766229033e-01 -9.620351922805688e-02 -9.787562979792743e-03  1.466746792676756e-01
10 2 2 -2.325340546189481e-02 -1.289381054548293e+00  2.717688751457115e+00 0 0 0  1.503875918746641e-01  1.019591482125903e-01 -5.642956998436650e-02 -2.260370756857233e-01  8.863491699586088e-01  3.857774006357483e-01 -1.202837748320911e-01 -3.350339629046455e-01 -3.946571967713065e-01 -1.579356431141853e-01