LAMMPS (27 Jun 2024)
KOKKOS mode with Kokkos version 4.3.1 is enabled (../kokkos.cpp:72)
Reading data file ...
  orthogonal box = (-2 -2 -5) to (2 2 5)
  1 by 1 by 2 MPI processor grid
  reading atoms ...
  8 atoms
  reading velocities ...
  8 velocities
  8 ellipsoids
  read_data CPU = 0.014 seconds
8 atoms in group all
8 atoms in group polymer

CITE-CITE-CITE-CITE-CITE-CITE-CITE-CITE-CITE-CITE-CITE-CITE-CITE

Your simulation uses code contributions which should be cited:
- Type Label Framework: https://doi.org/10.1021/acs.jpcb.3c08419
The log file lists these citations in BibTeX format.

CITE-CITE-CITE-CITE-CITE-CITE-CITE-CITE-CITE-CITE-CITE-CITE-CITE

Generated 0 of 0 mixed pair_coeff terms from geometric mixing rule
Neighbor list info ...
  update: every = 1 steps, delay = 0 steps, check = yes
  max neighbors/atom: 2000, page size: 100000
  master list distance cutoff = 2.6224615
  ghost atom cutoff = 2.6224615
  binsize = 1.3112308, bins = 4 4 8
  1 neighbor lists, perpetual/occasional/extra = 1 0 0
  (1) pair lj/cut/kk, perpetual
      attributes: half, newton on, kokkos_device
      pair build: half/bin/newton/kk/device
      stencil: half/bin/3d
      bin: kk/device
Proc 1: pack_exchange_kokkos() call start
Proc 1: pack_exchange_kokkos() call end
Proc 1: pack_exchange_kokkos() call start
Proc 1: pack_exchange_kokkos() call end
Proc 1: pack_exchange_kokkos() call start
Proc 1: pack_exchange_kokkos() call end
Setting up Verlet run ...
  Unit style    : lj
  Current step  : 0
  Time step     : 0.001
Proc 0: pack_exchange_kokkos() call start
Proc 0: pack_exchange_kokkos() call end
Proc 0: pack_exchange_kokkos() call start
Proc 0: pack_exchange_kokkos() call end
Proc 0: pack_exchange_kokkos() call start
Proc 0: pack_exchange_kokkos() call end
tag[j] = 5
tag[j] = 1
bonus[ellipsoid[i]].ilocal: 4
ellipsoid[j]: 0
tag[j] = 3
bonus[ellipsoid[i]].ilocal: 0
ellipsoid[j]: 2
tag[j] = 2
bonus[ellipsoid[i]].ilocal: 2
bonus[ellipsoid[i]].ilocal: 4
ellipsoid[j]: 0
tag[j] = 8
bonus[ellipsoid[i]].ilocal: 0
ellipsoid[j]: 3
tag[j] = 6
bonus[ellipsoid[i]].ilocal: 3
ellipsoid[j]: 1
ellipsoid[j]: 1
tag[j] = 4
bonus[ellipsoid[i]].ilocal: 1
ellipsoid[j]: 3
tag[j] = 1
bonus[ellipsoid[i]].ilocal: 3
ellipsoid[j]: 0
tag[j] = 7
bonus[ellipsoid[i]].ilocal: 1
ellipsoid[j]: 2
tag[j] = 5
bonus[ellipsoid[i]].ilocal: 2
ellipsoid[j]: 0
Proc 1: pack_border_kokkos() call start
Pb (START) i=0: tag 3, ellip 2, q[0/1/3/4]: 0.923785 0.000000 0.382911 0.000000
Pb (START) i=1: tag 4, ellip 3, q[0/1/3/4]: 0.923785 0.000000 0.000000 0.382911
Pb (START) i=2: tag 2, ellip 1, q[0/1/3/4]: 0.923785 0.382911 0.000000 0.000000
Pb (START) i=3: tag 1, ellip 0, q[0/1/3/4]: 1.000000 0.000000 0.000000 0.000000
Proc 0: pack_border_kokkos() call start
Pb (START) i=0: tag 8, ellip 3, q[0/1/3/4]: 0.577350 0.577350 0.577350 0.000000
Pb (START) i=1: tag 7, ellip 2, q[0/1/3/4]: 0.707107 0.000000 0.707107 0.000000
Pb (START) i=2: tag 5, ellip 0, q[0/1/3/4]: 0.000000 0.707107 0.000000 0.707107
Pb (START) i=3: tag 6, ellip 1, q[0/1/3/4]: 0.707107 0.000000 0.000000 0.707107
Pb Buf 0: tag 0.000000, q[0/1/3/4]: 0.923785 0.000000 0.382911 0.000000
Pb Buf 1: tag 0.923785, q[0/1/3/4]: 0.000000 0.000000 31.249999 0.000000
Pb Buf 2: tag 0.000000, q[0/1/3/4]: 0.000000 0.000000 0.000000 0.000000
Pb Buf 0: tag 0.000000, q[0/1/3/4]: 0.577350 0.577350 0.577350 0.000000
Pb Buf 3: tag 0.000000, q[0/1/3/4]: 0.000000 0.000000 0.000000 0.000000
Proc 1: pack_border_kokkos() call end
Proc 1: unpack_border_kokkos() call start
UPb (Start), Proc 1, nghost_bonus = 0
Pb Buf 1: tag 0.707107, q[0/1/3/4]: 0.000000 0.000000 31.249999 0.000000
Pb Buf 2: tag 0.000000, q[0/1/3/4]: 0.000000 0.000000 0.707107 0.000000
Pb Buf 3: tag 0.000000, q[0/1/3/4]: 0.000000 0.000000 0.000000 0.000000
Proc 0: pack_border_kokkos() call end
Proc 0: unpack_border_kokkos() call start
UPb (Start), Proc 0, nghost_bonus = 0
UPb (Proc 1), nghost_bonus = 0
Proc 1: unpack_border_kokkos() call end
COMM (Proc 1): atom->nghost 4
UPb (Proc 0), nghost_bonus = 0
Proc 0: unpack_border_kokkos() call end
COMM (Proc 0): atom->nghost 4
Proc 1: pack_border_kokkos() call start
Pb (START) i=0: tag 3, ellip 2, q[0/1/3/4]: 0.923785 0.000000 0.382911 0.000000
Pb (START) i=1: tag 4, ellip 3, q[0/1/3/4]: 0.923785 0.000000 0.000000 0.382911
Pb (START) i=2: tag 2, ellip 1, q[0/1/3/4]: 0.923785 0.382911 0.000000 0.000000
Pb (START) i=3: tag 1, ellip 0, q[0/1/3/4]: 1.000000 0.000000 0.000000 0.000000
Proc 0: pack_border_kokkos() call start
Pb (START) i=0: tag 8, ellip 3, q[0/1/3/4]: 0.577350 0.577350 0.577350 0.000000
Pb (START) i=1: tag 7, ellip 2, q[0/1/3/4]: 0.707107 0.000000 0.707107 0.000000
Pb (START) i=2: tag 5, ellip 0, q[0/1/3/4]: 0.000000 0.707107 0.000000 0.707107
Pb (START) i=3: tag 6, ellip 1, q[0/1/3/4]: 0.707107 0.000000 0.000000 0.707107
Pb Buf 0: tag 0.000000, q[0/1/3/4]: 0.923785 0.000000 0.382911 0.000000
Pb Buf 1: tag 0.923785, q[0/1/3/4]: 0.000000 0.000000 31.249999 0.000000
Pb Buf 2: tag 0.000000, q[0/1/3/4]: 0.000000 0.000000 0.000000 0.000000
Pb Buf 3: tag 0.000000, q[0/1/3/4]: 0.000000 0.000000 0.000000 0.000000
Proc 1: pack_border_kokkos() call end
Proc 1: unpack_border_kokkos() call start
UPb (Start), Proc 1, nghost_bonus = 0
UPb (Proc 1), nghost_bonus = 0
Proc 1: unpack_border_kokkos() call end
COMM (Proc 1): atom->nghost 8
Pb Buf 0: tag 0.000000, q[0/1/3/4]: 0.577350 0.577350 0.577350 0.000000
Pb Buf 1: tag 0.707107, q[0/1/3/4]: 0.000000 0.000000 31.249999 0.000000
Pb Buf 2: tag 0.000000, q[0/1/3/4]: 0.000000 0.000000 0.707107 0.000000
Proc 1: pack_border_kokkos() call start
Pb (START) i=0: tag 3, ellip 2, q[0/1/3/4]: 0.923785 0.000000 0.382911 0.000000
Pb (START) i=1: tag 4, ellip 3, q[0/1/3/4]: 0.923785 0.000000 0.000000 0.382911
Pb (START) i=2: tag 2, ellip 1, q[0/1/3/4]: 0.923785 0.382911 0.000000 0.000000
Pb Buf 3: tag 0.000000, q[0/1/3/4]: 0.000000 0.000000 0.000000 0.000000
Proc 0: pack_border_kokkos() call end
Proc 0: unpack_border_kokkos() call start
UPb (Start), Proc 0, nghost_bonus = 0
Pb (START) i=3: tag 1, ellip 0, q[0/1/3/4]: 1.000000 0.000000 0.000000 0.000000
UPb (Proc 0), nghost_bonus = 0
Proc 0: unpack_border_kokkos() call end
COMM (Proc 0): atom->nghost 8
Proc 0: pack_border_kokkos() call start
Pb (START) i=0: tag 8, ellip 3, q[0/1/3/4]: 0.577350 0.577350 0.577350 0.000000
Pb (START) i=1: tag 7, ellip 2, q[0/1/3/4]: 0.707107 0.000000 0.707107 0.000000
Pb (START) i=2: tag 5, ellip 0, q[0/1/3/4]: 0.000000 0.707107 0.000000 0.707107
Pb (START) i=3: tag 6, ellip 1, q[0/1/3/4]: 0.707107 0.000000 0.000000 0.707107
