LAMMPS (29 Aug 2024 - Development - patch_29Aug2024-409-g5d879678f6-modified)
###
# Box and units  (use LJ units and periodic boundaries)
###

units           lj
atom_style      ellipsoid
dimension	3
boundary	p p p

lattice		sc 0.75
Lattice spacing in x,y,z = 1.1006424 1.1006424 1.1006424
region		box block 0 64 0 64 0 64
create_box	1 box
Created orthogonal box = (0 0 0) to (70.441115 70.441115 70.441115)
  1 by 2 by 3 MPI processor grid
create_atoms	1 box
Created 262144 atoms
  using lattice units in orthogonal box = (0 0 0) to (70.441115 70.441115 70.441115)
  create_atoms CPU = 0.008 seconds

group           all type 1
262144 atoms in group all
set             type 1 mass 1.0
Setting atom values ...
  262144 settings made for mass
set             type 1 shape 0.4 0.4 0.8
Setting atom values ...
  262144 settings made for shape
set             type 1 quat/random 29898
Setting atom values ...
  262144 settings made for quat/random

velocity 	all create 0.1 87287 loop geom

neighbor        0.3 bin
neigh_modify    delay 0 every 100 check yes

###################################################################
# Pair interaction between non-bonded atoms
#
#  Lennard-Jones 12-6 potential with cutoff:
#  potential E=4epsilon[ (sigma/r)^12 - (sigma/r)^6]  for r<r_cut
#
#  1.12246152962189 = 2^(1/6) is the minimum of the potential

pair_style      lj/cut 1.12246152962189

#
#  pair_coeff for lj/cut, specify 4:
#    * atom type interacting with
#    * atom type
#    * epsilon (energy units)
#    * sigma (distance units)
#

pair_coeff      1 1 1.0 1.0

#
#  pair_modify shift yes adds a constant to the potential such
#  that E(r_cut)=0. Forces remains unchanged.
#

pair_modify     shift yes

###################################################
reset_atoms 	id sort yes
Resetting atom IDs ...
Generated 0 of 0 mixed pair_coeff terms from geometric mixing rule
Neighbor list info ...
  update: every = 100 steps, delay = 0 steps, check = yes
  max neighbors/atom: 2000, page size: 100000
  master list distance cutoff = 1.4224615
  ghost atom cutoff = 1.4224615
  binsize = 0.71123076, bins = 100 100 100
  1 neighbor lists, perpetual/occasional/extra = 1 0 0
  (1) pair lj/cut, perpetual
      attributes: half, newton on
      pair build: half/bin/atomonly/newton
      stencil: half/bin/3d
      bin: standard

comm_modify cutoff 6
#comm_style tiled
#balance 1.2 rcb

###
# Set up fixes
###

fix 1 all   nve/asphere   ###NVE ensemble
#fix 2 all   langevin   1.0 1.0   2.0   424242   ###Langevin integrator Tstart Tstop 1/friction rndseed

compute ekin all ke
compute epot all pe
variable ekin equal c_ekin
variable epot equal c_epot
variable etot equal c_ekin+c_epot

fix 3 all print 5000 "$(step)  ekin = ${ekin} | epot = ${epot} | etot = ${etot}" screen yes

compute q all property/atom quatw quati quatj quatk
compute diameter all property/atom shapex shapey shapez
dump 1 all custom 5000 dump.polymer id type x y z c_q[1] c_q[2] c_q[3] c_q[4] c_diameter[1] c_diameter[2] c_diameter[3]
dump_modify 1 colname c_q[1] quatw colname c_q[2] quati colname c_q[3] quatj colname c_q[4] quatk

###################################################

timestep 0.0001 #0.012

run 20000
Generated 0 of 0 mixed pair_coeff terms from geometric mixing rule
0  ekin = 39321.4499999999 | epot = 12287.9999939309 | etot = 51609.4499939308
Per MPI rank memory allocation (min/avg/max) = 41.4 | 41.69 | 41.97 Mbytes
   Step          Temp          E_pair         E_mol          TotEng         Press     
         0   0.1            0.046875       0              0.19687443     1.3406247    
5000  ekin = 29047.6777127029 | epot = 22561.7811693921 | etot = 51609.458882095
10000  ekin = 35907.6256450265 | epot = 15701.8328156921 | etot = 51609.4584607186
15000  ekin = 36224.8842840417 | epot = 15384.5741155702 | etot = 51609.4583996119
20000  ekin = 36442.2265825002 | epot = 15167.2318132387 | etot = 51609.4583957389
     20000   0.092677728    0.057858398    0              0.19687446     0.88727789   
Loop time of 394.74 on 6 procs for 20000 steps with 262144 atoms

Performance: 437.756 tau/day, 50.666 timesteps/s, 13.282 Matom-step/s
95.7% CPU use with 6 MPI tasks x no OpenMP threads

MPI task timing breakdown:
Section |  min time  |  avg time  |  max time  |%varavg| %total
---------------------------------------------------------------
Pair    | 89.792     | 91.198     | 92.441     |  10.1 | 23.10
Neigh   | 0.35504    | 0.35746    | 0.361      |   0.3 |  0.09
Comm    | 121.34     | 123.94     | 127.4      |  21.0 | 31.40
Output  | 0.29511    | 0.31695    | 0.33773    |   2.6 |  0.08
Modify  | 157.87     | 160.54     | 162.48     |  12.7 | 40.67
Other   |            | 18.39      |            |       |  4.66

Nlocal:        43690.7 ave       43895 max       43324 min
Histogram: 1 1 0 0 0 0 0 0 1 3
Nghost:        60133.2 ave       60805 max       59769 min
Histogram: 4 0 0 0 0 0 0 0 0 2
Neighs:         214921 ave      216203 max      212785 min
Histogram: 1 0 1 0 0 0 0 2 0 2

Total # of neighbors = 1289524
Ave neighs/atom = 4.9191437
Neighbor list builds = 17
Dangerous builds = 0

write_data data_out.* nocoeff
System init for write_data ...
Generated 0 of 0 mixed pair_coeff terms from geometric mixing rule
Total wall time: 0:06:37
