LAMMPS data file via write_data, version 19 Nov 2024, timestep = 100000, units = lj

9261 atoms
1 atom types
9261 ellipsoids

0 23.113490742262385 xlo xhi
0 23.113490742262385 ylo yhi
0 23.113490742262385 zlo zhi

Atoms # ellipsoid/kk

17 1 1 5.968310365946075 4.977743428542631 0.21118247396101986 0.16621086881427435 0 0 0
55 1 1 5.968310365946075 14.141646291853805 0.6273137408067605 0.19392887579550794 0 0 0
57 1 1 5.968310365946075 15.503191042448504 0.23416254238973036 0.4798088567409452 0 0 0
8381 1 1 5.968310365946075 0.3277960280944251 0.8564946167153878 0.14112066438993115 0 0 1
10 1 1 5.968310365946075 2.2595618310498327 0.976702842090007 0.4799306415015337 0 0 0
4120 1 1 5.968310365946075 10.114760719924462 11.544547333589438 7.938683840220569 0 0 0
23 1 1 5.968310365946075 5.201093718844431 1.2915923473839561 0.3641341637888942 0 0 0
25 1 1 5.968310365946075 7.921087172752212 0.85983635330513 0.1400881603157796 0 0 0
8409 1 1 5.968310365946075 9.09754528490941 1.0078694378332351 0.20065670266904953 0 0 1
39 1 1 5.968310365946075 10.311580314945608 1.14906461976628 0.45031023152610206 0 0 0
8521 1 1 5.968310365946075 15.194560903414715 1.3286771985279704 0.2177373101535201 0 0 1
8447 1 1 5.968310365946075 17.37835417732711 1.1910976984308623 0.3062431399029768 0 0 1
157 1 1 5.968310365946075 19.692685046985893 1.0150781295992821 0.5628254316366367 0 0 0
84 1 1 5.968310365946075 21.810356207546132 0.9672391059152786 0.5062291040421648 0 0 0
7 1 1 5.968310365946075 0.37437935907189573 1.930875598926278 0.505838390984537 0 0 0
12 1 1 5.968310365946075 2.0807830348019425 2.1096628756829148 0.2385924014827 0 0 0
19 1 1 5.968310365946075 4.017598440273139 1.7736223368937585 0.30717839476642367 0 0 0
27 1 1 5.968310365946075 6.290795168273366 1.7129227835610512 0.5980056734322405 0 0 0
32 1 1 5.968310365946075 7.405338259507539 1.703243940834331 0.5717920620620236 0 0 0
117 1 1 5.968310365946075 8.68871872363731 1.9512557641857098 0.6742228933597407 0 0 0
43 1 1 5.968310365946075 11.233870540857522 1.6158298538970592 0.0693196546742475 0 0 0
129 1 1 5.968310365946075 12.407983662617745 2.1190109615792894 0.26206687214476965 0 0 0
134 1 1 5.968310365946075 13.503964667743624 2.031315247459211 0.41886407202694487 0 0 0
59 1 1 5.968310365946075 16.240638087640757 1.5913164118414826 0.6954990637677733 0 0 0
69 1 1 5.968310365946075 18.516001130908524 1.6451156082753766 0.1727681815611933 0 0 0
161 1 1 5.968310365946075 20.18530951460975 1.9394286818473692 0.4976915383473458 0 0 0
165 1 1 5.968310365946075 21.294563500166554 1.940731478459309 0.37877066561462275 0 0 0
89 1 1 5.968310365946075 0.8924824896927165 2.8529772862055824 0.06301785560394602 0 0 0
107 1 1 5.968310365946075 5.95227120629012 2.675236556694029 0.08421403055451442 0 0 0
113 1 1 5.968310365946075 7.177813096132807 2.8069734081285804 0.2625334995199673 0 0 0
121 1 1 5.968310365946075 10.410129446057093 2.383532351989478 0.0773730372130635 0 0 0
8527 1 1 5.968310365946075 16.226904883285528 2.685995728758507 0.006459268385272116 0 0 1
153 1 1 5.968310365946075 17.0706633865888 2.394232802929651 0.7560958145983421 0 0 0
155 1 1 5.968310365946075 18.163817604377133 2.7090351240405983 0.3650922678009434 0 0 0
159 1 1 5.968310365946075 19.30230319469447 2.429293683309616 0.07104732076146342 0 0 0
95 1 1 5.968310365946075 2.9653940453491576 3.373513135002468 0.33217531112280346 0 0 0
103 1 1 5.968310365946075 4.735103736483786 3.2275199306510407 0.26205466689731427 0 0 0
115 1 1 5.968310365946075 8.378832797238857 3.0280936168433272 0.7214794945280154 0 0 0
131 1 1 5.968310365946075 12.116554552724422 3.0745737199756604 0.6966871981744488 0 0 0
151 1 1 5.968310365946075 17.08446639516612 3.6030035574056765 0.4788924846388115 0 0 0
8535 1 1 5.968310365946075 19.728073050135055 3.5010406842567128 0.20410067644568758 0 0 1
164 1 1 5.968310365946075 20.737572699159017 2.9214194958298836 0.28917798034665254 0 0 0
88 1 1 5.968310365946075 21.883951966682446 3.1347835185737556 0.29994128515640917 -1 0 0
169 1 1 5.968310365946075 0.13252771442400083 3.849931157690177 0.06277510804723915 0 0 0
182 1 1 5.968310365946075 3.9064255976841067 3.982319199513367 0.5409998818917571 0 0 0
189 1 1 5.968310365946075 5.305807574276719 4.183665623641593 0.34382932642718944 0 0 0
194 1 1 5.968310365946075 6.300626453299331 3.762032905300354 0.6546740907675207 0 0 0
198 1 1 5.968310365946075 8.42431199646863 4.075533969730472 0.23821504102714286 0 0 0
201 1 1 5.968310365946075 10.056731588036193 3.928104228674374 0.6237585869856157 0 0 0
135 1 1 5.968310365946075 13.763776068966964 3.910239803180744 0.03463475327831023 0 0 0
249 1 1 5.968310365946075 22.297670565724218 4.218686831975626 0.5332425496287426 0 0 0
191 1 1 5.968310365946075 6.919912326515731 4.729757190464223 0.5722170011104533 0 0 0
204 1 1 5.968310365946075 9.217769475714945 4.788945718576455 0.6983613852890694 0 0 0
205 1 1 5.968310365946075 11.021845711487682 4.8338938819167785 0.5493133286198244 0 0 0
217 1 1 5.968310365946075 12.123331770542004 4.89252643560477 0.29323991119581166 0 0 0
225 1 1 5.968310365946075 15.07500230742688 4.511985059286606 0.4779377959176447 0 0 0
232 1 1 5.968310365946075 16.273147229648256 4.851643205728513 0.5823329733511909 0 0 0
233 1 1 5.968310365946075 17.45106288117083 4.658975667281609 0.22830633700670097 0 0 0
1770 1 1 5.968310365946075 0.5087713651020578 0.002722749026813672 6.375748530517014 0 0 0
8631 1 1 5.968310365946075 21.428772513515103 4.871817528088783 0.24633174409341432 0 0 1
176 1 1 5.968310365946075 1.1422593351884687 5.52082259217319 0.2302385653703925 0 0 0
188 1 1 5.968310365946075 4.461225605516764 5.258804435256086 0.4879022277484785 0 0 0
192 1 1 5.968310365946075 5.934713177088571 5.384479820830399 0.47464682378791356 0 0 0
195 1 1 5.968310365946075 8.10408641898994 5.266144012887744 0.4267732099204514 0 0 0
203 1 1 5.968310365946075 10.110564426693799 5.119522545562019 0.07585162802196797 0 0 0
218 1 1 5.968310365946075 14.036574759204791 5.07101335178097 0.20526710231519293 0 0 0
239 1 1 5.968310365946075 18.183190644157254 5.61837204634082 0.3209339929364357 0 0 0
243 1 1 5.968310365946075 19.38402807869911 5.506282196691891 0.7689033342308969 0 0 0
171 1 1 5.968310365946075 0.07084348255806625 6.135589637505915 0.45435450346155865 0 0 0
183 1 1 5.968310365946075 2.375670899371802 5.7051767314766915 0.6898620132420321 0 0 0
269 1 1 5.968310365946075 3.393805330686737 6.1255788998086125 0.7979568324230434 0 0 0
286 1 1 5.968310365946075 7.0859368856738065 5.786103416939231 0.36038605898733944 0 0 0
289 1 1 5.968310365946075 10.122414341259402 6.445568191765993 0.42755857788737134 0 0 0
219 1 1 5.968310365946075 12.508067996380737 5.990903328548162 0.372920331696997 0 0 0
325 1 1 5.968310365946075 19.752339910308482 6.350131638556756 0.21627621748125767 0 0 0
8627 1 1 5.968310365946075 20.91389842613959 6.080343356803848 0.4865949098205668 0 0 1
259 1 1 5.968310365946075 0.6316446458339662 6.974975243545362 0.03223045799015407 0 0 0
265 1 1 5.968310365946075 2.522732866123825 6.831619106474692 0.6289465426713079 0 0 0
271 1 1 5.968310365946075 4.118423403392942 7.006701609731984 0.062267930189883136 0 0 0
277 1 1 5.968310365946075 6.186460778533569 6.51123088869531 0.43936383277051017 0 0 0
288 1 1 5.968310365946075 8.90503119216113 6.6930062006088304 0.44078706331489786 0 0 0
294 1 1 5.968310365946075 11.017864194894148 7.005364009860043 0.6873505242355337 0 0 0
220 1 1 5.968310365946075 13.244782655877525 6.932280905280957 0.6250627687368978 0 0 0
312 1 1 5.968310365946075 15.496519050117888 6.899778512215736 0.581908096365818 0 0 0
313 1 1 5.968310365946075 16.501647598355497 6.678243335777016 0.1770744795499893 0 0 0
317 1 1 5.968310365946075 17.5734178404254 6.62354626975676 0.4373289321858408 0 0 0
8701 1 1 5.968310365946075 18.75146101492481 6.792603302007807 0.4970229394183794 0 0 1
261 1 1 5.968310365946075 1.7106440780882557 7.460767212643379 0.15316072391106564 0 0 0
267 1 1 5.968310365946075 3.0210403872769582 7.688354470843158 0.05819895894049181 0 0 0
273 1 1 5.968310365946075 5.200413061415946 7.291187379889716 0.3732694687505485 0 0 0
283 1 1 5.968310365946075 7.507355041622967 7.366600316870878 0.15536594873023699 0 0 0
302 1 1 5.968310365946075 12.521491278314254 7.757656985455591 0.7060248881572478 0 0 0
307 1 1 5.968310365946075 14.480832855082552 7.454723180706664 0.3720323078869107 0 0 0
327 1 1 5.968310365946075 18.605844621548684 7.8982017892453955 0.7753070910863541 0 0 0
331 1 1 5.968310365946075 20.5052885342068 7.322826931527239 0.4870873232296065 0 0 0
255 1 1 5.968310365946075 21.97640666869126 7.7768791176834835 0.514943573933847 -1 0 0
362 1 1 5.968310365946075 3.7600018655009304 8.426902560360473 0.4205921460902908 0 0 0
1249 1 1 5.968310365946075 5.822594011794219 8.409643985249618 0.35737070855411535 0 0 0
373 1 1 5.968310365946075 6.937919542058492 8.47070187761462 0.4898485776088648 0 0 0
391 1 1 5.968310365946075 9.811099000813849 8.394409816993099 0.08229852937591602 0 0 0
415 1 1 5.968310365946075 14.137958169407058 8.559078710404767 0.5802192586936422 0 0 0
337 1 1 5.968310365946075 23.009913483997277 8.098139615187677 0.3830161566438872 -1 0 0
264 1 1 5.968310365946075 2.046099714565296 9.242269544682133 0.1322338365388868 0 0 0
370 1 1 5.968310365946075 4.850739192663431 8.98972374826915 0.5744812502121569 0 0 0
1247 1 1 5.968310365946075 4.720054649483917 11.534078622554782 1.125582333658313 0 0 0
403 1 1 5.968310365946075 12.35993038236657 9.063186717247042 0.3698287927375543 0 0 0
422 1 1 5.968310365946075 15.184606067848513 8.972976690156445 0.602911148106943 0 0 0
428 1 1 5.968310365946075 16.578892809427664 8.65558683408998 0.5966847332105143 0 0 0
323 1 1 5.968310365946075 17.67310245039291 8.716980244871458 0.4234791133883305 0 0 0
440 1 1 5.968310365946075 18.745614368221222 9.059797349012692 0.5198304111703933 0 0 0
8831 1 1 5.968310365946075 20.773855850998977 9.106136434572516 0.015106588244947112 0 0 1
458 1 1 5.968310365946075 21.89161344181273 8.917042463325002 0.19225804509250158 0 0 0
346 1 1 5.968310365946075 1.0232548448650602 9.62965274419161 0.5867861358092745 0 0 0
1241 1 1 5.968310365946075 2.935167690686494 9.916435975617256 0.501120095534617 0 0 0
371 1 1 5.968310365946075 4.99145672810602 9.972359360690199 0.11035959506095273 0 0 0
1265 1 1 5.968310365946075 7.080435324221353 9.501364016671987 0.41682602752520975 0 0 0
390 1 1 5.968310365946075 8.625822350345361 10.019737281718859 0.2741462598280744 0 0 0
4122 1 1 5.968310365946075 9.603522269122625 11.099447902983023 11.510931989005456 0 0 0
416 1 1 5.968310365946075 14.316938238597777 9.687431200689941 0.6563303844612778 0 0 0
435 1 1 5.968310365946075 17.11631863735013 9.729361139727516 0.6221862830242323 0 0 0
447 1 1 5.968310365946075 19.80436171185138 9.422211805562327 0.49011574171077543 0 0 0
459 1 1 5.968310365946075 21.29493000497246 10.09982169774389 0.10877487500390202 0 0 0
1219 1 1 5.968310365946075 22.99682842128425 9.488836634929156 0.062203674026665504 -1 0 0
1221 1 1 5.968310365946075 0.27982288329370575 10.457402052496368 0.6345371490779471 0 0 0
352 1 1 5.968310365946075 1.833916215736685 10.777623336182334 0.6619101440896162 0 0 0
378 1 1 5.968310365946075 7.491021693912115 10.662048768497856 0.23352217929049907 0 0 0
495 1 1 5.968310365946075 9.652244572705037 10.594056043408203 0.28839165101222913 0 0 0
406 1 1 5.968310365946075 10.738066789003906 10.450227320168947 0.1795249737588848 0 0 0
5240 1 1 5.968310365946075 7.665571955998318 11.44705907848525 11.141504082010684 0 0 0
423 1 1 5.968310365946075 15.186683014639726 10.43614918484956 0.28656916132179927 0 0 0
4095 1 1 5.968310365946075 6.461640955340907 11.31464846515597 11.160512742486784 0 0 0
442 1 1 5.968310365946075 17.831084861175114 10.525556642763702 0.4062775015517806 0 0 0
4068 1 1 5.968310365946075 4.239836520950137 11.15523785232963 11.244336297357583 0 0 0
539 1 1 5.968310365946075 20.10665511913522 10.717161518947618 0.3339915955497739 0 0 0
460 1 1 5.968310365946075 22.262876165041092 10.54460628591241 0.6034551335123379 0 0 0
360 1 1 5.968310365946075 3.0065106933759904 11.276340631259494 0.3529817002703148 0 0 0
492 1 1 5.968310365946075 8.525513392787255 11.02775653852206 0.6243707968718535 0 0 0
412 1 1 5.968310365946075 11.602052793105122 11.240004442780025 0.3212184142783936 0 0 0
414 1 1 5.968310365946075 12.716402326974903 11.498357158845103 0.2529727139963466 0 0 0
419 1 1 5.968310365946075 14.651663976075456 11.346721137402598 0.5453290491493734 0 0 0
432 1 1 5.968310365946075 15.743766147964532 11.274096098128979 0.5897938880353015 0 0 0
1 1 1 5.968310365946075 0.6441604376478198 0.1388083520861602 0.8694931878522032 0 0 0
887 1 1 5.968310365946075 1.7718986329241528 0.039912964297074374 1.0472164220916353 0 0 0
810 1 1 5.968310365946075 3.09023602835297 0.37367012734385296 1.15295025410198 0 1 0
16 1 1 5.968310365946075 4.218705857628688 0.7044384655044269 0.8158499739571968 0 0 0
26 1 1 5.968310365946075 6.420519102332347 0.43113733642439545 0.9658906594111127 0 0 0
29 1 1 5.968310365946075 7.487626728335351 0.671396469861702 1.1849814507134577 0 0 0
33 1 1 5.968310365946075 8.533381825553953 0.1689215733863543 0.7811159740346105 0 0 0
38 1 1 5.968310365946075 9.630948645324095 0.3505390982413137 0.8736937944056485 0 0 0
44 1 1 5.968310365946075 11.392007451071436 0.6807591319618309 0.6995050622234875 0 0 0
931 1 1 5.968310365946075 13.786839365004978 0.34857307812600896 1.3961102375418837 0 0 0
56 1 1 5.968310365946075 14.987334415789288 0.640512497694512 1.3194659521445988 0 0 0
63 1 1 5.968310365946075 16.561678297712916 0.45086371883940046 0.8877992046161592 0 0 0
67 1 1 5.968310365946075 17.6463486011456 0.10913463380818984 1.0241511048034293 0 0 0
70 1 1 5.968310365946075 18.76637792316486 0.23674538408050477 0.8242088131176768 0 0 0
80 1 1 5.968310365946075 19.977603786165005 0.14247113780683707 1.1511845692956182 0 0 0
4 1 1 5.968310365946075 22.23194601804604 0.26627156991821843 1.3945280489306173 -1 0 0
86 1 1 5.968310365946075 0.05546685863600392 0.9928963602653254 1.2119170052521508 0 0 0
8 1 1 5.968310365946075 1.2543646667626585 1.2157687771239614 0.8234487863047715 0 0 0
22 1 1 5.968310365946075 5.327616800835827 0.8017509343201846 1.367893217875312 0 0 0
118 1 1 5.968310365946075 8.639417831669654 1.1112756646684663 1.3942059555607824 0 0 0
51 1 1 5.968310365946075 12.96806361537036 0.917608734640559 0.8177486399370232 0 0 0
937 1 1 5.968310365946075 14.159253640988382 1.4093656337554499 1.2130822479038743 0 0 0
79 1 1 5.968310365946075 20.786141382798768 0.9464469949740617 0.8027524295878453 0 0 0
897 1 1 5.968310365946075 3.232533393612455 1.4885667509925924 1.1217082843469959 0 0 0
20 1 1 5.968310365946075 4.564666897323092 1.6322608466417945 1.3542037261430961 0 0 0
40 1 1 5.968310365946075 9.650480326747386 1.6062975580428993 1.2201851667788541 0 0 0
127 1 1 5.968310365946075 10.804366606230253 1.9126085788643492 1.3079447397858734 0 0 0
48 1 1 5.968310365946075 12.069900105626079 1.5648455729574027 1.161054355791854 0 0 0
141 1 1 5.968310365946075 15.238276677005112 1.8211620145991947 1.295989886501714 0 0 0
150 1 1 5.968310365946075 17.916460454864467 1.9852275829476118 1.280787856049073 0 0 0
154 1 1 5.968310365946075 19.215123314201943 1.6723202363144845 1.2529747409532934 0 0 0
166 1 1 5.968310365946075 22.412582656726457 2.0183389272626475 0.8525375362670288 0 0 0
90 1 1 5.968310365946075 1.297143663360204 2.329964775486552 1.0571276882259588 0 0 0
100 1 1 5.968310365946075 2.837924938797236 2.528673547416618 1.1767194715723197 0 0 0
101 1 1 5.968310365946075 3.843182836579114 2.7205972329032826 0.7896114862037263 0 0 0
105 1 1 5.968310365946075 5.273441525026588 2.366565669288434 0.8833263032174049 0 0 0
110 1 1 5.968310365946075 6.381694931624287 2.820436662402039 1.240738389720087 0 0 0
114 1 1 5.968310365946075 7.675998376594416 2.4428464878828753 1.411340844015573 0 0 0
120 1 1 5.968310365946075 9.557123793615355 2.724987917539955 0.8925128805529646 0 0 0
130 1 1 5.968310365946075 12.79422748863456 2.4503512405763184 1.3722117129127738 0 0 0
138 1 1 5.968310365946075 14.383212515364582 2.455651068033162 0.9004956040917186 0 0 0
145 1 1 5.968310365946075 15.426064372820484 2.787031104604319 0.8109794529480681 0 0 0
158 1 1 5.968310365946075 19.99551908482724 2.72149634604794 1.3017303502027808 0 0 0
92 1 1 5.968310365946075 0.16352256651352465 3.0489097025681655 0.8709052214378665 0 0 0
94 1 1 5.968310365946075 1.9490141423879264 3.2336555160397618 0.8042675138082145 0 0 0
104 1 1 5.968310365946075 3.2801460414701236 3.6308908248568157 1.3967850506677604 0 0 0
111 1 1 5.968310365946075 7.403792986608334 3.506390313384293 1.177496393045293 0 0 0
122 1 1 5.968310365946075 10.722809440102454 3.1028463646814237 0.915013508269368 0 0 0
1021 1 1 5.968310365946075 13.521209540541662 3.117535080377205 0.7442008734918926 0 0 0
140 1 1 5.968310365946075 14.515216522952516 3.596690209691801 0.7623851334572035 0 0 0
156 1 1 5.968310365946075 18.947633979350826 3.156110088652226 1.0075818216241574 0 0 0
1049 1 1 5.968310365946075 21.936314535255065 2.8766176189450348 1.3570073002919887 0 0 0
174 1 1 5.968310365946075 1.0796957350988674 3.8935014117366973 0.8065254154363091 0 0 0
1063 1 1 5.968310365946075 2.520186087539955 4.245961496246146 0.848079059823735 0 0 0
108 1 1 5.968310365946075 4.4126426501289275 4.126550395811814 1.4718575719132938 0 0 0
106 1 1 5.968310365946075 5.474320932060215 3.566573372050923 1.343633573245146 0 0 0
1081 1 1 5.968310365946075 8.586059984161304 4.016453200914678 1.34923459406233 0 0 0
213 1 1 5.968310365946075 11.639327207354944 4.013653544449382 0.8910701737578156 0 0 0
136 1 1 5.968310365946075 12.769908489846822 4.004401610508698 0.8830865212587667 0 0 0
230 1 1 5.968310365946075 15.928879294161872 3.7514310538235045 0.8413044180545991 0 0 0
1115 1 1 5.968310365946075 16.923839150066307 4.296800708746523 1.362104372449066 0 0 0
234 1 1 5.968310365946075 17.986756228958093 3.9500607438766546 0.9584899428950091 0 0 0
160 1 1 5.968310365946075 19.976020371749684 3.8418452543713055 1.1962307299949868 0 0 0
246 1 1 5.968310365946075 21.107448248892922 3.837544131524179 0.905701876200293 0 0 0
170 1 1 5.968310365946075 0.2540943524426611 4.619995210078418 1.0117244790829591 0 0 0
178 1 1 5.968310365946075 1.6606402944105532 4.934592503997453 1.0429061058972176 0 0 0
1069 1 1 5.968310365946075 3.4852451677076415 4.9354586275159935 0.9213560782856097 0 0 0
1073 1 1 5.968310365946075 5.231317348021931 5.067964765990606 1.3258105484918798 0 0 0
222 1 1 5.968310365946075 13.822213292665484 4.3651429006791025 1.1195493425135399 0 0 0
241 1 1 5.968310365946075 19.070930123887003 4.443124812908052 1.003233620987013 0 0 0
245 1 1 5.968310365946075 20.454556932147753 4.748141617495917 0.8093720259606336 0 0 0
172 1 1 5.968310365946075 0.7482316995665977 5.5611037009486965 1.4025007373955762 0 0 0
1159 1 1 5.968310365946075 6.721534071848389 5.631169971211785 1.3300915286322552 0 0 0
211 1 1 5.968310365946075 10.624211231347406 5.589399629317711 1.3703767213772002 0 0 0
215 1 1 5.968310365946075 11.701026456501769 5.545280848571324 1.107621884694022 0 0 0
216 1 1 5.968310365946075 13.114937652924125 5.138137473010593 0.8495848758346505 0 0 0
228 1 1 5.968310365946075 14.476709512797305 5.295744045653413 1.1560884215137164 0 0 0
236 1 1 5.968310365946075 17.099119538471083 5.613152667669768 0.7935453894983898 0 0 0
238 1 1 5.968310365946075 18.12276271235098 5.193409734125154 1.2794406488159045 0 0 0
247 1 1 5.968310365946075 21.297318381995765 5.295882324727718 1.2384111008243393 0 0 0
251 1 1 5.968310365946075 22.408274445521865 5.262514045380375 0.7524347667058764 0 0 0
270 1 1 5.968310365946075 5.047602785907678 6.1136517017689975 0.9548519138735775 0 0 0
282 1 1 5.968310365946075 7.9243891833196045 6.115727558986811 1.0830525355423448 0 0 0
208 1 1 5.968310365946075 9.281715552325174 5.865832263384854 1.0746119543682984 0 0 0
224 1 1 5.968310365946075 13.719869208263578 6.204515844247811 1.314407556745887 0 0 0
310 1 1 5.968310365946075 15.447165311637573 5.802053572880152 0.8254312612062281 0 0 0
244 1 1 5.968310365946075 20.227543157399108 5.9478609217690055 1.3936772211777162 0 0 0
336 1 1 5.968310365946075 22.005028763376274 6.440268224904234 0.7725785038125293 0 0 0
257 1 1 5.968310365946075 0.07778312606588421 7.067472290189546 1.010114204685728 0 0 0
180 1 1 5.968310365946075 1.4089825612206563 6.606036964064169 0.8100861314466847 0 0 0
1153 1 1 5.968310365946075 4.235836099617311 6.880662477880701 1.184438387468998 0 0 0
278 1 1 5.968310365946075 7.00217491155281 6.693847140961631 1.1749966911411165 0 0 0
298 1 1 5.968310365946075 12.056219673044563 6.852942282527968 1.0325639156059432 0 0 0
306 1 1 5.968310365946075 14.711590670656276 6.621227848759089 1.3870678729764618 0 0 0
314 1 1 5.968310365946075 16.91728077486152 6.820540262670648 1.3298892431501073 0 0 0
322 1 1 5.968310365946075 19.695194778871237 6.9788439712705 1.2637984212223417 0 0 0
326 1 1 5.968310365946075 21.042108901627646 6.864665648233472 1.3372816071592162 0 0 0
262 1 1 5.968310365946075 0.9813107965805786 7.800468335541932 0.9538752526898655 0 0 0
272 1 1 5.968310365946075 3.1803588491396315 7.391721373982389 1.2781796436187498 0 0 0
280 1 1 5.968310365946075 5.965499438027005 7.557563548911727 1.0959779795147968 0 0 0
1165 1 1 5.968310365946075 7.210051773021498 7.815415897815173 1.2825139462128285 0 0 0
284 1 1 5.968310365946075 8.12290933108618 7.240234035276273 1.078161374132761 0 0 0
291 1 1 5.968310365946075 9.993101148894704 7.497455001816361 0.7404387247786219 0 0 0
308 1 1 5.968310365946075 13.88475406307545 7.8155780815328235 1.4153847909717223 0 0 0
316 1 1 5.968310365946075 16.228752847178317 7.6715120133806245 1.0031838537486042 0 0 0
320 1 1 5.968310365946075 17.318897274304614 7.748029783751213 0.7870136622831531 0 0 0
268 1 1 5.968310365946075 2.174106155883007 7.867805445432865 1.152298770746767 0 0 0
276 1 1 5.968310365946075 4.5407176595531205 7.979179906499272 1.0750502269222892 0 0 0
374 1 1 5.968310365946075 6.426922130936827 8.599826401642858 1.4614808511876882 0 0 0
379 1 1 5.968310365946075 7.999940309261865 8.64353464131816 0.6655604631797554 0 0 0
385 1 1 5.968310365946075 8.999714906144689 8.174075957371615 0.835896999345212 0 0 0
398 1 1 5.968310365946075 10.172242236881258 8.594864798490528 1.1266679267754909 0 0 0
300 1 1 5.968310365946075 11.532764914835745 8.455006280892377 0.823753279080538 0 0 0
1185 1 1 5.968310365946075 13.140839371393378 8.62375920198584 1.0285229078870728 0 0 0
1193 1 1 5.968310365946075 15.021114491045493 8.04027377467788 1.3075937263362374 0 0 0
328 1 1 5.968310365946075 19.99840467007299 8.306924224947803 0.7779544895752659 0 0 0
332 1 1 5.968310365946075 21.072413323704602 8.1214022916661 1.0205828388432245 0 0 0
256 1 1 5.968310365946075 22.230319318189352 8.460976377955028 1.378745109261886 -1 0 0
344 1 1 5.968310365946075 0.20836211628581244 8.997068514833993 1.0241604262461785 0 0 0
1145 1 1 5.968310365946075 1.5102349101455637 8.789399213110785 1.2102489151118143 0 0 0
1237 1 1 5.968310365946075 2.8492630172167135 8.902267376916319 0.9964770004901676 0 0 0
392 1 1 5.968310365946075 9.34584347700293 9.29119365858109 0.7562778718045283 0 0 0
446 1 1 5.968310365946075 19.425604399776674 8.955224703192327 1.4071953691011367 0 0 0
451 1 1 5.968310365946075 21.279304980579287 9.309068731517447 1.0165413913481236 0 0 0
350 1 1 5.968310365946075 1.9605795124181853 9.837252507993274 1.3045669791250376 0 0 0
1239 1 1 5.968310365946075 3.9836051607729837 9.651795735223907 1.0615158398994256 0 0 0
376 1 1 5.968310365946075 6.0164053970015505 9.830046076540544 0.9138452638818798 0 0 0
400 1 1 5.968310365946075 10.302469268981833 9.729285655649143 1.2324051139179963 0 0 0
410 1 1 5.968310365946075 11.399072529272388 9.547988136670911 0.8616452154998768 0 0 0
1291 1 1 5.968310365946075 13.102174484826866 9.76156729630435 0.9887634388514669 0 0 0
1321 1 1 5.968310365946075 18.1804222175398 9.913878609512086 1.1653519429364658 0 0 0
453 1 1 5.968310365946075 20.420388456727387 9.96529898410241 1.3067611124698393 0 0 0
1235 1 1 5.968310365946075 2.801793666064619 10.874090706001 1.4513654728130696 0 0 0
363 1 1 5.968310365946075 3.91906011764029 10.774854033946301 0.8822242527726335 0 0 0
1251 1 1 5.968310365946075 4.922844011146541 10.20536441146946 1.2840474881252146 0 0 0
1370 1 1 5.968310365946075 6.887504927573039 10.324201165936003 1.3437209161978547 0 0 0
1263 1 1 5.968310365946075 8.061263792690298 10.099483670430667 1.338029550959206 0 0 0
388 1 1 5.968310365946075 9.203397561113043 10.332975650431216 1.3327717453941201 0 0 0
1289 1 1 5.968310365946075 12.15648038729715 10.538541370669927 1.072905151289866 0 0 0
430 1 1 5.968310365946075 16.083283604125874 10.322731876970549 0.9828276645932759 0 0 0
448 1 1 5.968310365946075 19.265871369108645 10.132895786005085 1.164413844068253 0 0 0
348 1 1 5.968310365946075 0.8994311489486915 11.419819902002892 0.8682296469426264 0 0 0
1259 1 1 5.968310365946075 5.8070306716342985 10.975599165980086 0.9099579000250675 0 0 0
1369 1 1 5.968310365946075 7.6375378621471395 11.14898397452424 1.3385265412541345 0 0 0
1277 1 1 5.968310365946075 10.35609371175837 10.872709122438959 1.1771743726532156 0 0 0
418 1 1 5.968310365946075 13.673901176939554 10.909385408302601 0.7284417092958939 0 0 0
438 1 1 5.968310365946075 16.884863727710176 11.274062853086624 0.7770308625260132 0 0 0
450 1 1 5.968310365946075 18.980792310726706 11.12519042912481 0.6988463756496166 0 0 0
1329 1 1 5.968310365946075 20.072852084163486 11.517443538624116 1.1159723487051132 0 0 0
456 1 1 5.968310365946075 21.085788832849268 11.043804638092752 0.9964895454815015 0 0 0
544 1 1 5.968310365946075 21.989353519528287 11.43901736288808 1.3818851942080659 0 0 0
2 1 1 5.968310365946075 1.0113782241776113 0.6432880285913853 1.8048693625874763 0 0 0
891 1 1 5.968310365946075 2.0427038751281477 0.3470708859506389 2.096943177426814 0 0 0
483 1 1 5.968310365946075 5.209559602512846 11.081968513580739 0.0095870418685 0 0 0
907 1 1 5.968310365946075 6.806312553952033 0.39163411555753036 2.0457334662551756 0 0 0
36 1 1 5.968310365946075 9.291079206018093 0.4127043848143276 1.9476281293902975 0 0 0
46 1 1 5.968310365946075 12.630380395798387 0.3079178051545936 1.8312509649173476 0 0 0
947 1 1 5.968310365946075 16.278506773084178 0.05930673465636305 2.056178280458145 0 0 0
75 1 1 5.968310365946075 19.131722280628082 0.4975134894499835 1.882797668367961 0 0 0
893 1 1 5.968310365946075 2.230041688864554 1.4026696203128899 1.5875534101626867 0 0 0
901 1 1 5.968310365946075 3.4131382166361584 1.0933945165445307 2.113160736181237 0 0 0
921 1 1 5.968310365946075 10.564079386860264 0.7850917151097335 1.5748400512772196 0 0 0
929 1 1 5.968310365946075 11.632833083118086 0.9434288270872672 2.015458078689154 0 0 0
52 1 1 5.968310365946075 12.939375485910753 1.4609376019933744 1.8620881294346852 0 0 0
142 1 1 5.968310365946075 16.009232350360985 1.0526022929196177 1.675176649093177 0 0 0
64 1 1 5.968310365946075 17.083686105531214 1.3642481060131129 1.5984061710024478 0 0 0
72 1 1 5.968310365946075 18.174874711778823 1.0527200587363 1.7139278197654289 0 0 0
961 1 1 5.968310365946075 20.133930295827607 1.0540482053281572 1.6937647481721632 0 0 0
962 1 1 5.968310365946075 21.334947028080837 0.8508389747552176 1.8357852835344664 0 0 0
965 1 1 5.968310365946075 22.336019434487113 1.358517899296022 1.8204835495203844 0 0 0
967 1 1 5.968310365946075 0.7465789959738353 1.7166097381319247 1.8709494200475199 0 0 0
24 1 1 5.968310365946075 5.7146514604533625 1.7230322133630154 1.7924116077078815 0 0 0
28 1 1 5.968310365946075 6.77880950517718 1.5163790291549357 1.5208511455726095 0 0 0
995 1 1 5.968310365946075 7.702869076635789 1.6204260478440582 2.1774035754654757 0 0 0
953 1 1 5.968310365946075 18.61746322352581 1.9350716861476276 2.1325975690501013 0 0 0
162 1 1 5.968310365946075 20.83347272803932 1.9699798055774416 1.4055348050562104 0 0 0
975 1 1 5.968310365946075 1.8596181176665398 2.5083358268766784 2.0857867809893844 0 0 0
98 1 1 5.968310365946075 3.7105346428787342 2.2736629827492303 1.9241451357623536 0 0 0
116 1 1 5.968310365946075 8.74426671886454 2.193101329089374 1.8362714126771118 0 0 0
1003 1 1 5.968310365946075 9.906997708041885 2.533778237910954 1.9646506925383327 0 0 0
132 1 1 5.968310365946075 11.644490770113762 2.6272679250391118 1.5540596609819892 0 0 0
1015 1 1 5.968310365946075 13.834957101876652 2.3096852564702983 1.8651663288942446 0 0 0
1029 1 1 5.968310365946075 14.897127346337259 2.7271762851354495 1.8103981880656557 0 0 0
146 1 1 5.968310365946075 16.27877831280328 2.200313976210024 1.5965306103226755 0 0 0
969 1 1 5.968310365946075 22.94711177528108 2.5179048318711694 1.7923897365130392 -1 0 0
973 1 1 5.968310365946075 0.9486331405342929 3.166418165482229 1.803732664996616 0 0 0
102 1 1 5.968310365946075 4.5476875429376875 3.0433933697032347 1.6474032288025482 0 0 0
997 1 1 5.968310365946075 6.596246864164808 3.526696376944975 2.1205327594351293 0 0 0
128 1 1 5.968310365946075 10.876037428695858 3.2512797651900227 2.0540469173669504 0 0 0
1025 1 1 5.968310365946075 13.99574618218635 3.428556402197387 1.7625084760019787 0 0 0
152 1 1 5.968310365946075 16.6171116305212 3.258740758478912 1.5534932876908383 0 0 0
1035 1 1 5.968310365946075 17.74525969205907 3.0534185954014275 1.4864529578522885 0 0 0
1039 1 1 5.968310365946075 19.111060116022323 2.9839700688068507 2.11362769990309 0 0 0
1045 1 1 5.968310365946075 20.86290682396879 3.1099969469285362 1.928907105471939 0 0 0
96 1 1 5.968310365946075 1.8261122370454501 3.859547975663131 1.7676061142774893 0 0 0
124 1 1 5.968310365946075 9.738050297573183 3.6237247961130317 1.7427401723777598 0 0 0
209 1 1 5.968310365946075 10.703283505755152 4.309014800776704 1.4772739110357822 0 0 0