LAMMPS (2 Aug 2023 - Development - stable_17Nov2016-25572-g6548f9a5ea-modified)
