LAMMPS data file via write_data, version 2 Aug 2023, timestep = 250000, units = lj

10 atoms
1 atom types
9 bonds
1 bond types
5 ellipsoids

-20 20 xlo xhi
-20 20 ylo yhi
-20 20 zlo zhi

Masses

1 1

Atoms # hybrid/kk

2 1 4.560035071549563 -3.2715547228494364 -5.0543492545565964 1 0 238.7324039657 0 0 0
4 1 5.163929254103108 -3.076302588755747 -4.001816727942048 1 0 238.7324039657 0 0 0
3 1 4.5754701264562545 -3.899644400138258 -4.185975809862115 1 0 238.7324039657 0 0 0
1 1 3.940299523528533 -2.9862505562885757 -4.281729328894262 1 0 238.7324039657 0 0 0
5 1 4.432104115013888 -2.404909243750899 -3.3757413574445496 1 0 238.7324039657 0 0 0
8 1 4.576192548810923 -3.6002894343437335 -1.637335811917045 1 1 238.7324039657 0 0 0
6 1 4.692414272233985 -3.221974919144513 -2.9704506109619446 1 1 238.7324039657 0 0 0
7 1 4.150340246585123 -3.7694467790119264 -2.4370856954233244 1 1 238.7324039657 0 0 0
10 1 5.564347987025027 -1.9476740367681284 -1.2515382572842424 1 1 238.7324039657 0 0 0
9 1 5.535139788888991 -2.994081021173 -1.745922636625403 1 1 238.7324039657 0 0 0

Velocities

2 0.050366093548519605 -0.08343955742411106 -0.015790130881540708 0 0 0
4 0.02134836694861391 0.016763219593966018 -0.10806686794031793 0 0 0
3 -0.039946836536483066 0.1462241658204702 0.07556284018947762 0 0 0
1 -0.02033520276438188 0.06428335711237015 0.123844726566046 0 0 0
5 0.01513853416141931 -0.20958651589526656 0.03826691352687672 0 0 0
8 -0.6801804246269819 -0.06794885245855822 -0.7743015111914533 0 0 0
6 -0.5414431004169802 -0.3759374057318521 -0.40297766122105644 0 0 0
7 0.5909116140197451 0.3821646605320239 -0.27683933741939043 0 0 0
10 0.05060821188367369 0.5465470812828511 0.36642476707547483 0 0 0
9 0.3771165525237059 0.01750824102897177 0.21819223309007882 0 0 0

Bonds

1 1 2 3
2 1 4 5
3 1 3 4
4 1 1 2
5 1 5 6
6 1 8 9
7 1 6 7
8 1 7 8
9 1 9 10

Ellipsoids

8 1 0.5 0.5 0.923785244892942 0 0.38291098354328656 0
6 0.5 0.5 1 1 0 0 0
7 0.5 1 0.5 0.923785244892942 0.38291098354328656 0 0
10 0.5 1 0.5 0 0.7071067811865475 0 0.7071067811865475
9 0.5 0.5 1 0.923785244892942 0 0 0.38291098354328656
