ITEM: TIMESTEP
0
ITEM: NUMBER OF ATOMS
10
ITEM: BOX BOUNDS pp pp pp
-2.0000000000000000e+01 2.0000000000000000e+01
-2.0000000000000000e+01 2.0000000000000000e+01
-2.0000000000000000e+01 2.0000000000000000e+01
ITEM: ATOMS id type xs ys zs
1 1 0.591802 0.409513 0.338737
2 1 0.596481 0.413821 0.364912
3 1 0.60315 0.419033 0.388859
4 1 0.616872 0.424151 0.410107
5 1 0.631649 0.427068 0.433311
6 1 0.637478 0.433582 0.456952
7 1 0.657579 0.44253 0.484551
8 1 0.672917 0.445699 0.512567
9 1 0.674281 0.450152 0.544835
10 1 0.675771 0.457706 0.56771
ITEM: TIMESTEP
1000
ITEM: NUMBER OF ATOMS
10
ITEM: BOX BOUNDS pp pp pp
-2.0000000000000000e+01 2.0000000000000000e+01
-2.0000000000000000e+01 2.0000000000000000e+01
-2.0000000000000000e+01 2.0000000000000000e+01
ITEM: ATOMS id type xs ys zs
1 1 0.591807 0.409518 0.338765
2 1 0.59648 0.41382 0.364901
3 1 0.603156 0.419034 0.38886
4 1 0.616878 0.42415 0.410117
5 1 0.631636 0.427069 0.433299
6 1 0.637869 0.433736 0.457412
7 1 0.657366 0.442386 0.484353
8 1 0.672729 0.445719 0.512642
9 1 0.674262 0.450092 0.544391
10 1 0.67577 0.457702 0.567699
ITEM: TIMESTEP
2000
ITEM: NUMBER OF ATOMS
10
ITEM: BOX BOUNDS pp pp pp
-2.0000000000000000e+01 2.0000000000000000e+01
-2.0000000000000000e+01 2.0000000000000000e+01
-2.0000000000000000e+01 2.0000000000000000e+01
ITEM: ATOMS id type xs ys zs
1 1 0.591822 0.409531 0.338849
2 1 0.596479 0.413817 0.364867
3 1 0.603176 0.419036 0.388863
4 1 0.616896 0.424148 0.410147
5 1 0.631598 0.427074 0.433272
6 1 0.638891 0.434122 0.458549
7 1 0.656871 0.442021 0.483962
8 1 0.672154 0.445762 0.512777
9 1 0.674209 0.449953 0.54321
10 1 0.675762 0.457662 0.567574
ITEM: TIMESTEP
3000
ITEM: NUMBER OF ATOMS
10
ITEM: BOX BOUNDS pp pp pp
-2.0000000000000000e+01 2.0000000000000000e+01
-2.0000000000000000e+01 2.0000000000000000e+01
-2.0000000000000000e+01 2.0000000000000000e+01
ITEM: ATOMS id type xs ys zs
1 1 0.591847 0.409554 0.338987
2 1 0.596478 0.413812 0.364813
3 1 0.603209 0.419039 0.388867
4 1 0.616926 0.424144 0.410195
5 1 0.631542 0.427088 0.433248
6 1 0.64028 0.434603 0.459952
7 1 0.65633 0.441549 0.483718
8 1 0.671182 0.445794 0.512786
9 1 0.674124 0.449802 0.54159
10 1 0.675736 0.457534 0.567172
ITEM: TIMESTEP
4000
ITEM: NUMBER OF ATOMS
10
ITEM: BOX BOUNDS pp pp pp
-2.0000000000000000e+01 2.0000000000000000e+01
-2.0000000000000000e+01 2.0000000000000000e+01
-2.0000000000000000e+01 2.0000000000000000e+01
ITEM: ATOMS id type xs ys zs
1 1 0.591881 0.409585 0.339176
2 1 0.596477 0.413807 0.364742
3 1 0.603256 0.419042 0.388871
4 1 0.616967 0.424138 0.410261
5 1 0.631475 0.427115 0.433241
6 1 0.641833 0.43508 0.461316
7 1 0.655883 0.441053 0.483823
8 1 0.669833 0.445784 0.512536
9 1 0.674004 0.44969 0.539776
10 1 0.675685 0.457284 0.566366
ITEM: TIMESTEP
5000
ITEM: NUMBER OF ATOMS
10
ITEM: BOX BOUNDS pp pp pp
-2.0000000000000000e+01 2.0000000000000000e+01
-2.0000000000000000e+01 2.0000000000000000e+01
-2.0000000000000000e+01 2.0000000000000000e+01
ITEM: ATOMS id type xs ys zs
1 1 0.591923 0.409625 0.339415
2 1 0.596478 0.413802 0.36466
3 1 0.603315 0.419047 0.388875
4 1 0.617017 0.424131 0.410343
5 1 0.631409 0.427161 0.433271
6 1 0.643375 0.435466 0.462387
7 1 0.655578 0.440585 0.484331
8 1 0.66818 0.445717 0.512004
9 1 0.673838 0.449642 0.537941
10 1 0.675603 0.456898 0.56508
ITEM: TIMESTEP
6000
ITEM: NUMBER OF ATOMS
10
ITEM: BOX BOUNDS pp pp pp
-2.0000000000000000e+01 2.0000000000000000e+01
-2.0000000000000000e+01 2.0000000000000000e+01
-2.0000000000000000e+01 2.0000000000000000e+01
ITEM: ATOMS id type xs ys zs
1 1 0.591974 0.409671 0.339697
2 1 0.596482 0.413797 0.364572
3 1 0.603388 0.419052 0.388878
4 1 0.617076 0.424121 0.410439
5 1 0.631355 0.42723 0.433358
6 1 0.644724 0.43568 0.462896
7 1 0.655425 0.440176 0.48523
8 1 0.666319 0.445592 0.511238
9 1 0.673614 0.449668 0.536198
10 1 0.675488 0.456374 0.563281
ITEM: TIMESTEP
7000
ITEM: NUMBER OF ATOMS
10
ITEM: BOX BOUNDS pp pp pp
-2.0000000000000000e+01 2.0000000000000000e+01
-2.0000000000000000e+01 2.0000000000000000e+01
-2.0000000000000000e+01 2.0000000000000000e+01
ITEM: ATOMS id type xs ys zs
1 1 0.592031 0.409724 0.340017
2 1 0.59649 0.413795 0.364486
3 1 0.603473 0.419057 0.38888
4 1 0.617143 0.42411 0.410547
5 1 0.631324 0.427328 0.433516
6 1 0.645752 0.435668 0.462685
7 1 0.655382 0.439829 0.486421
8 1 0.664349 0.445422 0.510324
9 1 0.673318 0.449758 0.53459
10 1 0.675338 0.455727 0.56098
ITEM: TIMESTEP
8000
ITEM: NUMBER OF ATOMS
10
ITEM: BOX BOUNDS pp pp pp
-2.0000000000000000e+01 2.0000000000000000e+01
-2.0000000000000000e+01 2.0000000000000000e+01
-2.0000000000000000e+01 2.0000000000000000e+01
ITEM: ATOMS id type xs ys zs
1 1 0.592094 0.409782 0.340367
2 1 0.596505 0.413797 0.364412
3 1 0.603571 0.419063 0.388878
4 1 0.617216 0.424096 0.410668
5 1 0.631323 0.427454 0.433747
6 1 0.646442 0.435443 0.461849
7 1 0.65533 0.439498 0.487607
8 1 0.66239 0.445242 0.509449
9 1 0.672928 0.449886 0.533076
10 1 0.675155 0.454979 0.558239
ITEM: TIMESTEP
9000
ITEM: NUMBER OF ATOMS
10
ITEM: BOX BOUNDS pp pp pp
-2.0000000000000000e+01 2.0000000000000000e+01
-2.0000000000000000e+01 2.0000000000000000e+01
-2.0000000000000000e+01 2.0000000000000000e+01
ITEM: ATOMS id type xs ys zs
1 1 0.592161 0.409843 0.340737
2 1 0.596528 0.413805 0.36436
3 1 0.603682 0.419068 0.388875
4 1 0.617296 0.424081 0.410801
5 1 0.631349 0.427603 0.434034
6 1 0.646843 0.435054 0.460638
7 1 0.655073 0.439047 0.488169
8 1 0.660628 0.445176 0.509078
9 1 0.672414 0.45001 0.531524
10 1 0.674945 0.45417 0.5552
ITEM: TIMESTEP
10000
ITEM: NUMBER OF ATOMS
10
ITEM: BOX BOUNDS pp pp pp
-2.0000000000000000e+01 2.0000000000000000e+01
-2.0000000000000000e+01 2.0000000000000000e+01
-2.0000000000000000e+01 2.0000000000000000e+01
ITEM: ATOMS id type xs ys zs
1 1 0.592229 0.409905 0.341115
2 1 0.596563 0.413821 0.364345
3 1 0.603806 0.419074 0.388869
4 1 0.617383 0.424064 0.410945
5 1 0.631394 0.427769 0.434358
6 1 0.64701 0.434552 0.459292
7 1 0.654487 0.438336 0.487559
8 1 0.659169 0.445348 0.509592
9 1 0.671759 0.450076 0.529697
10 1 0.674738 0.453361 0.552169
ITEM: TIMESTEP
11000
ITEM: NUMBER OF ATOMS
10
ITEM: BOX BOUNDS pp pp pp
-2.0000000000000000e+01 2.0000000000000000e+01
-2.0000000000000000e+01 2.0000000000000000e+01
-2.0000000000000000e+01 2.0000000000000000e+01
ITEM: ATOMS id type xs ys zs
1 1 0.592296 0.409967 0.341486
2 1 0.596612 0.413848 0.364381
3 1 0.603943 0.41908 0.388861
4 1 0.617476 0.424046 0.411102
5 1 0.631453 0.427946 0.4347
6 1 0.646984 0.433977 0.457978
7 1 0.653698 0.437486 0.486165
8 1 0.657723 0.445569 0.510265
9 1 0.671073 0.450086 0.527429
10 1 0.674596 0.452619 0.549615
ITEM: TIMESTEP
12000
ITEM: NUMBER OF ATOMS
10
ITEM: BOX BOUNDS pp pp pp
-2.0000000000000000e+01 2.0000000000000000e+01
-2.0000000000000000e+01 2.0000000000000000e+01
-2.0000000000000000e+01 2.0000000000000000e+01
ITEM: ATOMS id type xs ys zs
1 1 0.592358 0.410024 0.341835
2 1 0.596679 0.413887 0.364481
3 1 0.604094 0.419086 0.388854
4 1 0.617575 0.424028 0.41127
5 1 0.631518 0.42813 0.435046
6 1 0.646791 0.433356 0.456781
7 1 0.652813 0.436654 0.484463
8 1 0.655635 0.4455 0.509931
9 1 0.670881 0.450219 0.52523
10 1 0.674559 0.451953 0.54773
ITEM: TIMESTEP
13000
ITEM: NUMBER OF ATOMS
10
ITEM: BOX BOUNDS pp pp pp
-2.0000000000000000e+01 2.0000000000000000e+01
-2.0000000000000000e+01 2.0000000000000000e+01
-2.0000000000000000e+01 2.0000000000000000e+01
ITEM: ATOMS id type xs ys zs
1 1 0.592415 0.410076 0.342151
2 1 0.596764 0.413942 0.364659
3 1 0.604259 0.419093 0.38885
4 1 0.617681 0.424009 0.41145
5 1 0.631583 0.428315 0.435382
6 1 0.646462 0.432711 0.455762
7 1 0.651856 0.435904 0.482641
8 1 0.652809 0.445067 0.508455
9 1 0.671297 0.450528 0.523229
10 1 0.674607 0.451329 0.54637
ITEM: TIMESTEP
14000
ITEM: NUMBER OF ATOMS
10
ITEM: BOX BOUNDS pp pp pp
-2.0000000000000000e+01 2.0000000000000000e+01
-2.0000000000000000e+01 2.0000000000000000e+01
-2.0000000000000000e+01 2.0000000000000000e+01
ITEM: ATOMS id type xs ys zs
1 1 0.592463 0.410121 0.342425
2 1 0.59687 0.414012 0.364918
3 1 0.60444 0.419102 0.388853
4 1 0.617793 0.423991 0.411643
5 1 0.631636 0.428497 0.43569
6 1 0.646061 0.432074 0.454991
7 1 0.650819 0.435256 0.48079
8 1 0.649952 0.44447 0.5065
9 1 0.67169 0.45083 0.521001
10 1 0.674693 0.450717 0.545264
ITEM: TIMESTEP
15000
ITEM: NUMBER OF ATOMS
10
ITEM: BOX BOUNDS pp pp pp
-2.0000000000000000e+01 2.0000000000000000e+01
-2.0000000000000000e+01 2.0000000000000000e+01
-2.0000000000000000e+01 2.0000000000000000e+01
ITEM: ATOMS id type xs ys zs
1 1 0.592503 0.410159 0.342658
2 1 0.596996 0.414097 0.365254
3 1 0.604637 0.419114 0.388867
4 1 0.617911 0.423974 0.411846
5 1 0.631658 0.428668 0.435944
6 1 0.645695 0.431473 0.454551
7 1 0.649698 0.434721 0.479006
8 1 0.64745 0.443814 0.504327
9 1 0.671751 0.451031 0.518621
10 1 0.67477 0.450106 0.544086
ITEM: TIMESTEP
16000
ITEM: NUMBER OF ATOMS
10
ITEM: BOX BOUNDS pp pp pp
-2.0000000000000000e+01 2.0000000000000000e+01
-2.0000000000000000e+01 2.0000000000000000e+01
-2.0000000000000000e+01 2.0000000000000000e+01
ITEM: ATOMS id type xs ys zs
1 1 0.592536 0.41019 0.342857
2 1 0.597139 0.414194 0.365656
3 1 0.604853 0.419129 0.3889
4 1 0.618034 0.423958 0.41206
5 1 0.63163 0.428824 0.436115
6 1 0.64549 0.430919 0.454459
7 1 0.648511 0.434313 0.477462
8 1 0.645478 0.443156 0.502028
9 1 0.671353 0.451073 0.516243
10 1 0.674812 0.449506 0.542614
ITEM: TIMESTEP
17000
ITEM: NUMBER OF ATOMS
10
ITEM: BOX BOUNDS pp pp pp
-2.0000000000000000e+01 2.0000000000000000e+01
-2.0000000000000000e+01 2.0000000000000000e+01
-2.0000000000000000e+01 2.0000000000000000e+01
ITEM: ATOMS id type xs ys zs
1 1 0.592565 0.410218 0.343033
2 1 0.597294 0.414301 0.366104
3 1 0.60509 0.41915 0.38896
4 1 0.618162 0.423943 0.412283
5 1 0.631536 0.428964 0.436186
6 1 0.645496 0.430362 0.454431
7 1 0.647312 0.434068 0.476518
8 1 0.644139 0.442554 0.49971
9 1 0.670417 0.45091 0.513945
10 1 0.6748 0.448931 0.540736
ITEM: TIMESTEP
18000
ITEM: NUMBER OF ATOMS
10
ITEM: BOX BOUNDS pp pp pp
-2.0000000000000000e+01 2.0000000000000000e+01
-2.0000000000000000e+01 2.0000000000000000e+01
-2.0000000000000000e+01 2.0000000000000000e+01
ITEM: ATOMS id type xs ys zs
1 1 0.592592 0.410244 0.343201
2 1 0.597456 0.414412 0.366576
3 1 0.605351 0.419179 0.389056
4 1 0.618294 0.42393 0.412511
5 1 0.631374 0.429088 0.436152
6 1 0.645722 0.429711 0.45404
7 1 0.646152 0.433993 0.476428
8 1 0.643443 0.442104 0.497601
9 1 0.668932 0.450515 0.511761
10 1 0.674712 0.448389 0.538404
ITEM: TIMESTEP
19000
ITEM: NUMBER OF ATOMS
10
ITEM: BOX BOUNDS pp pp pp
-2.0000000000000000e+01 2.0000000000000000e+01
-2.0000000000000000e+01 2.0000000000000000e+01
-2.0000000000000000e+01 2.0000000000000000e+01
ITEM: ATOMS id type xs ys zs
1 1 0.59262 0.410271 0.343372
2 1 0.597619 0.414524 0.36705
3 1 0.605638 0.419216 0.389198
4 1 0.618427 0.423919 0.412742
5 1 0.631142 0.429198 0.436013
6 1 0.646237 0.428964 0.453457
7 1 0.645074 0.433802 0.476336
8 1 0.64325 0.442065 0.49638
9 1 0.666975 0.449896 0.509721
10 1 0.674524 0.447883 0.535611
ITEM: TIMESTEP
20000
ITEM: NUMBER OF ATOMS
10
ITEM: BOX BOUNDS pp pp pp
-2.0000000000000000e+01 2.0000000000000000e+01
-2.0000000000000000e+01 2.0000000000000000e+01
-2.0000000000000000e+01 2.0000000000000000e+01
ITEM: ATOMS id type xs ys zs
1 1 0.592651 0.410301 0.343558
2 1 0.597778 0.414633 0.367507
3 1 0.605956 0.419265 0.389397
4 1 0.618559 0.423908 0.412971
5 1 0.630847 0.429298 0.435783
6 1 0.647031 0.428154 0.452894
7 1 0.644091 0.433186 0.475353
8 1 0.643395 0.442658 0.496588
9 1 0.664699 0.449097 0.50786
10 1 0.674211 0.44741 0.53239
ITEM: TIMESTEP
21000
ITEM: NUMBER OF ATOMS
10
ITEM: BOX BOUNDS pp pp pp
-2.0000000000000000e+01 2.0000000000000000e+01
-2.0000000000000000e+01 2.0000000000000000e+01
-2.0000000000000000e+01 2.0000000000000000e+01
ITEM: ATOMS id type xs ys zs
1 1 0.592687 0.410334 0.343766
2 1 0.597928 0.414735 0.36793
3 1 0.606305 0.419327 0.389659
4 1 0.618687 0.423897 0.413193
5 1 0.630512 0.429388 0.435491
6 1 0.647998 0.427264 0.452142
7 1 0.643084 0.432482 0.474325
8 1 0.643571 0.443433 0.497202
9 1 0.662506 0.448252 0.506321
10 1 0.673761 0.446962 0.528814
ITEM: TIMESTEP
22000
ITEM: NUMBER OF ATOMS
10
ITEM: BOX BOUNDS pp pp pp
-2.0000000000000000e+01 2.0000000000000000e+01
-2.0000000000000000e+01 2.0000000000000000e+01
-2.0000000000000000e+01 2.0000000000000000e+01
ITEM: ATOMS id type xs ys zs
1 1 0.592728 0.410373 0.344002
2 1 0.598066 0.414829 0.36831
3 1 0.606687 0.419401 0.389986
4 1 0.618808 0.423886 0.4134
5 1 0.63016 0.429468 0.435164
6 1 0.648998 0.426316 0.451114
7 1 0.642029 0.431936 0.473758
8 1 0.642293 0.443757 0.496928
9 1 0.66184 0.447751 0.505632
10 1 0.673236 0.446524 0.525074
ITEM: TIMESTEP
23000
ITEM: NUMBER OF ATOMS
10
ITEM: BOX BOUNDS pp pp pp
-2.0000000000000000e+01 2.0000000000000000e+01
-2.0000000000000000e+01 2.0000000000000000e+01
-2.0000000000000000e+01 2.0000000000000000e+01
ITEM: ATOMS id type xs ys zs
1 1 0.592777 0.410417 0.344269
2 1 0.598193 0.414915 0.368647
3 1 0.607099 0.419488 0.390375
4 1 0.618918 0.423872 0.413585
5 1 0.629811 0.429538 0.434826
6 1 0.649846 0.425403 0.450019
7 1 0.640993 0.431532 0.473444
8 1 0.639658 0.443637 0.495743
9 1 0.661999 0.447605 0.504687
10 1 0.673238 0.446023 0.522202
ITEM: TIMESTEP
24000
ITEM: NUMBER OF ATOMS
10
ITEM: BOX BOUNDS pp pp pp
-2.0000000000000000e+01 2.0000000000000000e+01
-2.0000000000000000e+01 2.0000000000000000e+01
-2.0000000000000000e+01 2.0000000000000000e+01
ITEM: ATOMS id type xs ys zs
1 1 0.592833 0.410467 0.344569
2 1 0.598309 0.414993 0.368943
3 1 0.607537 0.419584 0.390817
4 1 0.61901 0.423853 0.413737
5 1 0.629486 0.4296 0.434497
6 1 0.650369 0.424609 0.44904
7 1 0.640053 0.431179 0.473083
8 1 0.637011 0.443384 0.494308
9 1 0.660934 0.447637 0.501798
10 1 0.67449 0.445349 0.521292
ITEM: TIMESTEP
25000
ITEM: NUMBER OF ATOMS
10
ITEM: BOX BOUNDS pp pp pp
-2.0000000000000000e+01 2.0000000000000000e+01
-2.0000000000000000e+01 2.0000000000000000e+01
-2.0000000000000000e+01 2.0000000000000000e+01
ITEM: ATOMS id type xs ys zs
1 1 0.592896 0.410524 0.344903
2 1 0.598418 0.415065 0.369207
3 1 0.607994 0.419688 0.391295
4 1 0.61908 0.423824 0.413843
5 1 0.629198 0.429655 0.4342
6 1 0.650454 0.423987 0.448263
7 1 0.639264 0.430788 0.472451
8 1 0.634627 0.443108 0.492829
9 1 0.659443 0.447651 0.49856
10 1 0.67592 0.444649 0.520654
ITEM: TIMESTEP
26000
ITEM: NUMBER OF ATOMS
10
ITEM: BOX BOUNDS pp pp pp
-2.0000000000000000e+01 2.0000000000000000e+01
-2.0000000000000000e+01 2.0000000000000000e+01
-2.0000000000000000e+01 2.0000000000000000e+01
ITEM: ATOMS id type xs ys zs
1 1 0.592967 0.410586 0.345269
2 1 0.598525 0.415134 0.369451
3 1 0.608462 0.419795 0.391794
4 1 0.619121 0.423782 0.413891
5 1 0.628962 0.429707 0.433954
6 1 0.650054 0.423561 0.447718
7 1 0.638662 0.430303 0.471436
8 1 0.632569 0.442865 0.491382
9 1 0.657924 0.447555 0.495631
10 1 0.677063 0.444001 0.519633
ITEM: TIMESTEP
27000
ITEM: NUMBER OF ATOMS
10
ITEM: BOX BOUNDS pp pp pp
-2.0000000000000000e+01 2.0000000000000000e+01
-2.0000000000000000e+01 2.0000000000000000e+01
-2.0000000000000000e+01 2.0000000000000000e+01
ITEM: ATOMS id type xs ys zs
1 1 0.593045 0.410655 0.345665
2 1 0.598635 0.415201 0.369687
3 1 0.608929 0.419901 0.392291
4 1 0.619131 0.423724 0.413875
5 1 0.628783 0.429762 0.433775
6 1 0.649191 0.423326 0.447392
7 1 0.638232 0.42974 0.470079
8 1 0.630878 0.442651 0.489939
9 1 0.656512 0.44731 0.493216
10 1 0.677747 0.443438 0.51804
ITEM: TIMESTEP
28000
ITEM: NUMBER OF ATOMS
10
ITEM: BOX BOUNDS pp pp pp
-2.0000000000000000e+01 2.0000000000000000e+01
-2.0000000000000000e+01 2.0000000000000000e+01
-2.0000000000000000e+01 2.0000000000000000e+01
ITEM: ATOMS id type xs ys zs
1 1 0.593129 0.410728 0.346088
2 1 0.598752 0.415269 0.369924
3 1 0.609384 0.420001 0.39276
4 1 0.619113 0.423648 0.413801
5 1 0.628658 0.429826 0.433671
6 1 0.647983 0.423239 0.44722
7 1 0.637895 0.429179 0.468561
8 1 0.629603 0.442419 0.488414
9 1 0.655355 0.446885 0.491477
10 1 0.67781 0.442988 0.515723
ITEM: TIMESTEP
29000
ITEM: NUMBER OF ATOMS
10
ITEM: BOX BOUNDS pp pp pp
-2.0000000000000000e+01 2.0000000000000000e+01
-2.0000000000000000e+01 2.0000000000000000e+01
-2.0000000000000000e+01 2.0000000000000000e+01
ITEM: ATOMS id type xs ys zs
1 1 0.593218 0.410806 0.346534
2 1 0.598879 0.41534 0.370173
3 1 0.609809 0.420089 0.393166
4 1 0.619079 0.423558 0.413697
5 1 0.628571 0.429905 0.433632
6 1 0.646692 0.423181 0.447026
7 1 0.637491 0.428736 0.467206
8 1 0.628779 0.442127 0.486746
9 1 0.654508 0.446277 0.490431
10 1 0.677189 0.442656 0.512667
ITEM: TIMESTEP
30000
ITEM: NUMBER OF ATOMS
10
ITEM: BOX BOUNDS pp pp pp
-2.0000000000000000e+01 2.0000000000000000e+01
-2.0000000000000000e+01 2.0000000000000000e+01
-2.0000000000000000e+01 2.0000000000000000e+01
ITEM: ATOMS id type xs ys zs
1 1 0.593312 0.410887 0.346998
2 1 0.599021 0.415416 0.370443
3 1 0.610185 0.420157 0.393463
4 1 0.619052 0.423464 0.413609
5 1 0.628486 0.43001 0.43363
6 1 0.645777 0.422934 0.446511
7 1 0.636807 0.428538 0.466475
8 1 0.628407 0.441774 0.484957
9 1 0.653888 0.445513 0.48992
10 1 0.675968 0.44242 0.509021
ITEM: TIMESTEP
31000
ITEM: NUMBER OF ATOMS
10
ITEM: BOX BOUNDS pp pp pp
-2.0000000000000000e+01 2.0000000000000000e+01
-2.0000000000000000e+01 2.0000000000000000e+01
-2.0000000000000000e+01 2.0000000000000000e+01
ITEM: ATOMS id type xs ys zs
1 1 0.593409 0.410971 0.347477
2 1 0.599178 0.415497 0.370739
3 1 0.61049 0.420198 0.393604
4 1 0.619053 0.423372 0.41359
5 1 0.628362 0.430156 0.43363
6 1 0.645603 0.422327 0.445773
7 1 0.635865 0.428492 0.466312
8 1 0.628392 0.441484 0.483249
9 1 0.653367 0.444632 0.489739
10 1 0.674287 0.442249 0.504976
ITEM: TIMESTEP
32000
ITEM: NUMBER OF ATOMS
10
ITEM: BOX BOUNDS pp pp pp
-2.0000000000000000e+01 2.0000000000000000e+01
-2.0000000000000000e+01 2.0000000000000000e+01
-2.0000000000000000e+01 2.0000000000000000e+01
ITEM: ATOMS id type xs ys zs
1 1 0.593508 0.411057 0.347964
2 1 0.599353 0.415585 0.371065
3 1 0.610711 0.420207 0.393556
4 1 0.619097 0.423289 0.413674
5 1 0.628184 0.430352 0.433623
6 1 0.646092 0.421402 0.445238
7 1 0.635055 0.428104 0.465834
8 1 0.628484 0.441635 0.48214
9 1 0.652744 0.443681 0.489649
10 1 0.672377 0.442106 0.500755
ITEM: TIMESTEP
33000
ITEM: NUMBER OF ATOMS
10
ITEM: BOX BOUNDS pp pp pp
-2.0000000000000000e+01 2.0000000000000000e+01
-2.0000000000000000e+01 2.0000000000000000e+01
-2.0000000000000000e+01 2.0000000000000000e+01
ITEM: ATOMS id type xs ys zs
1 1 0.593609 0.411143 0.348456
2 1 0.599544 0.415678 0.37142
3 1 0.610856 0.420187 0.393329
4 1 0.619178 0.42321 0.413852
5 1 0.62799 0.430585 0.43364
6 1 0.646864 0.42034 0.444923
7 1 0.634537 0.427143 0.464646
8 1 0.628544 0.442374 0.481792
9 1 0.651155 0.442757 0.489122
10 1 0.671187 0.441915 0.496895
ITEM: TIMESTEP
34000
ITEM: NUMBER OF ATOMS
10
ITEM: BOX BOUNDS pp pp pp
-2.0000000000000000e+01 2.0000000000000000e+01
-2.0000000000000000e+01 2.0000000000000000e+01
-2.0000000000000000e+01 2.0000000000000000e+01
ITEM: ATOMS id type xs ys zs
1 1 0.59371 0.41123 0.348949
2 1 0.599747 0.415777 0.371798
3 1 0.610943 0.420146 0.392969
4 1 0.619277 0.423125 0.41408
6 1 0.647607 0.419296 0.444624
5 1 0.627825 0.430839 0.433719
7 1 0.634086 0.426055 0.463296
8 1 0.628282 0.443242 0.481495
9 1 0.648408 0.441887 0.488108
10 1 0.671423 0.441659 0.493611
ITEM: TIMESTEP
35000
ITEM: NUMBER OF ATOMS
10
ITEM: BOX BOUNDS pp pp pp
-2.0000000000000000e+01 2.0000000000000000e+01
-2.0000000000000000e+01 2.0000000000000000e+01
-2.0000000000000000e+01 2.0000000000000000e+01
ITEM: ATOMS id type xs ys zs
1 1 0.59381 0.411317 0.34944
2 1 0.599953 0.415877 0.372184
3 1 0.611002 0.420095 0.392539
4 1 0.619372 0.423023 0.414304
6 1 0.648165 0.418362 0.4442
5 1 0.627715 0.431104 0.433879
7 1 0.633556 0.425166 0.462164
8 1 0.626278 0.444056 0.480399
9 1 0.647191 0.440885 0.487603
10 1 0.671938 0.441396 0.490415
ITEM: TIMESTEP
36000
ITEM: NUMBER OF ATOMS
10
ITEM: BOX BOUNDS pp pp pp
-2.0000000000000000e+01 2.0000000000000000e+01
-2.0000000000000000e+01 2.0000000000000000e+01
-2.0000000000000000e+01 2.0000000000000000e+01
ITEM: ATOMS id type xs ys zs
1 1 0.593909 0.411402 0.349926
2 1 0.600148 0.415973 0.372551
3 1 0.611063 0.420045 0.392106
4 1 0.619448 0.422896 0.414488
6 1 0.648431 0.417609 0.443638
5 1 0.627672 0.431373 0.434126
7 1 0.632906 0.424594 0.461332
8 1 0.623394 0.444675 0.478657
9 1 0.647145 0.439763 0.487454
10 1 0.672287 0.441128 0.487202
ITEM: TIMESTEP
37000
ITEM: NUMBER OF ATOMS
10
ITEM: BOX BOUNDS pp pp pp
-2.0000000000000000e+01 2.0000000000000000e+01
-2.0000000000000000e+01 2.0000000000000000e+01
-2.0000000000000000e+01 2.0000000000000000e+01
ITEM: ATOMS id type xs ys zs
1 1 0.594006 0.411486 0.350404
2 1 0.600306 0.416056 0.372857
3 1 0.611162 0.420009 0.391739
4 1 0.619502 0.422746 0.414619
6 1 0.648306 0.4171 0.443009
5 1 0.627694 0.43164 0.434448
7 1 0.632148 0.42437 0.460749
8 1 0.620923 0.444864 0.476676
9 1 0.6471 0.438704 0.487212
10 1 0.672401 0.440848 0.483993
ITEM: TIMESTEP
38000
ITEM: NUMBER OF ATOMS
10
ITEM: BOX BOUNDS pp pp pp
-2.0000000000000000e+01 2.0000000000000000e+01
-2.0000000000000000e+01 2.0000000000000000e+01
-2.0000000000000000e+01 2.0000000000000000e+01
ITEM: ATOMS id type xs ys zs
1 1 0.594098 0.411567 0.350866
2 1 0.600397 0.416116 0.373055
3 1 0.611336 0.42 0.391506
4 1 0.619537 0.422577 0.4147
6 1 0.647727 0.416877 0.442397
5 1 0.627773 0.431894 0.434824
7 1 0.631314 0.42447 0.460329
8 1 0.619186 0.444542 0.474603
9 1 0.646827 0.437793 0.486722
10 1 0.672222 0.440543 0.480823
ITEM: TIMESTEP
39000
ITEM: NUMBER OF ATOMS
10
ITEM: BOX BOUNDS pp pp pp
-2.0000000000000000e+01 2.0000000000000000e+01
-2.0000000000000000e+01 2.0000000000000000e+01
-2.0000000000000000e+01 2.0000000000000000e+01
ITEM: ATOMS id type xs ys zs
1 1 0.594183 0.411642 0.351302
2 1 0.600401 0.416149 0.373121
3 1 0.611612 0.420026 0.391452
4 1 0.619557 0.422398 0.414745
6 1 0.646704 0.416938 0.441876
5 1 0.627894 0.432131 0.435227
7 1 0.630453 0.424826 0.460002
8 1 0.618311 0.443713 0.472569
9 1 0.646261 0.437079 0.485861
10 1 0.671684 0.440199 0.477736
ITEM: TIMESTEP
40000
ITEM: NUMBER OF ATOMS
10
ITEM: BOX BOUNDS pp pp pp
-2.0000000000000000e+01 2.0000000000000000e+01
-2.0000000000000000e+01 2.0000000000000000e+01
-2.0000000000000000e+01 2.0000000000000000e+01
ITEM: ATOMS id type xs ys zs
1 1 0.594253 0.411707 0.351688
2 1 0.600325 0.416159 0.37308
3 1 0.611988 0.420088 0.39157
4 1 0.619572 0.422217 0.414774
6 1 0.645345 0.417208 0.441507
5 1 0.628033 0.432356 0.435624
7 1 0.629652 0.425275 0.459696
8 1 0.618275 0.442508 0.47073
9 1 0.645397 0.436583 0.484533
10 1 0.670736 0.439804 0.47478
ITEM: TIMESTEP
41000
ITEM: NUMBER OF ATOMS
10
ITEM: BOX BOUNDS pp pp pp
-2.0000000000000000e+01 2.0000000000000000e+01
-2.0000000000000000e+01 2.0000000000000000e+01
-2.0000000000000000e+01 2.0000000000000000e+01
ITEM: ATOMS id type xs ys zs
1 1 0.594301 0.411755 0.351992
2 1 0.600201 0.416162 0.37301
3 1 0.612439 0.420174 0.391812
4 1 0.619589 0.422043 0.414805
6 1 0.64394 0.417457 0.441354
5 1 0.62815 0.432592 0.435979
7 1 0.629185 0.425341 0.459218
8 1 0.61872 0.441417 0.46938
9 1 0.644324 0.436283 0.482709
10 1 0.66935 0.439355 0.471991
ITEM: TIMESTEP
42000
ITEM: NUMBER OF ATOMS
10
ITEM: BOX BOUNDS pp pp pp
-2.0000000000000000e+01 2.0000000000000000e+01
-2.0000000000000000e+01 2.0000000000000000e+01
-2.0000000000000000e+01 2.0000000000000000e+01
ITEM: ATOMS id type xs ys zs
1 1 0.594314 0.411777 0.352176
2 1 0.600069 0.416176 0.372995
3 1 0.612932 0.420274 0.39212
4 1 0.619616 0.421881 0.414861
6 1 0.643024 0.417217 0.441416
5 1 0.628187 0.432896 0.436248
7 1 0.629414 0.42429 0.458363
8 1 0.619046 0.441221 0.46894
9 1 0.643153 0.436145 0.480424
10 1 0.667529 0.438852 0.469389
ITEM: TIMESTEP
43000
ITEM: NUMBER OF ATOMS
10
ITEM: BOX BOUNDS pp pp pp
-2.0000000000000000e+01 2.0000000000000000e+01
-2.0000000000000000e+01 2.0000000000000000e+01
-2.0000000000000000e+01 2.0000000000000000e+01
ITEM: ATOMS id type xs ys zs
1 1 0.594288 0.411769 0.352213
2 1 0.599958 0.416215 0.373098
3 1 0.61344 0.420379 0.392442
4 1 0.61966 0.421737 0.414964
6 1 0.643073 0.416139 0.441296
5 1 0.628125 0.433292 0.436402
7 1 0.62973 0.422617 0.457933
8 1 0.619384 0.441566 0.469083
9 1 0.641975 0.436136 0.477773
10 1 0.665315 0.438306 0.466963
ITEM: TIMESTEP
44000
ITEM: NUMBER OF ATOMS
10
ITEM: BOX BOUNDS pp pp pp
-2.0000000000000000e+01 2.0000000000000000e+01
-2.0000000000000000e+01 2.0000000000000000e+01
-2.0000000000000000e+01 2.0000000000000000e+01
ITEM: ATOMS id type xs ys zs
1 1 0.594223 0.41173 0.35211
2 1 0.599881 0.416283 0.373334
3 1 0.613944 0.420484 0.392738
4 1 0.619726 0.421613 0.415133
6 1 0.643846 0.414567 0.440627
5 1 0.628017 0.433722 0.436469
7 1 0.629555 0.421012 0.458423
8 1 0.619823 0.441886 0.469276
9 1 0.640991 0.436197 0.474972
10 1 0.662822 0.437733 0.464667
ITEM: TIMESTEP
45000
ITEM: NUMBER OF ATOMS
10
ITEM: BOX BOUNDS pp pp pp
-2.0000000000000000e+01 2.0000000000000000e+01
-2.0000000000000000e+01 2.0000000000000000e+01
-2.0000000000000000e+01 2.0000000000000000e+01
ITEM: ATOMS id type xs ys zs
1 1 0.59413 0.41167 0.351903
2 1 0.599835 0.416374 0.373679
3 1 0.614431 0.420586 0.392982
4 1 0.619819 0.421511 0.415385
6 1 0.644597 0.413102 0.439792
5 1 0.627911 0.434121 0.436487
7 1 0.6291 0.419502 0.459185
8 1 0.619732 0.442157 0.469203
9 1 0.640677 0.436188 0.472452
10 1 0.660368 0.437161 0.46235
ITEM: TIMESTEP
46000
ITEM: NUMBER OF ATOMS
10
ITEM: BOX BOUNDS pp pp pp
-2.0000000000000000e+01 2.0000000000000000e+01
-2.0000000000000000e+01 2.0000000000000000e+01
-2.0000000000000000e+01 2.0000000000000000e+01
ITEM: ATOMS id type xs ys zs
1 1 0.594022 0.411597 0.351638
2 1 0.599813 0.41648 0.374094
3 1 0.614897 0.420682 0.39316
4 1 0.619938 0.421434 0.415727
7 1 0.628525 0.418031 0.459744
6 1 0.644908 0.412049 0.439115
5 1 0.627826 0.434457 0.436472
8 1 0.618732 0.442385 0.46881
9 1 0.640575 0.436052 0.4708
10 1 0.658902 0.436634 0.459505
ITEM: TIMESTEP
47000
ITEM: NUMBER OF ATOMS
10
ITEM: BOX BOUNDS pp pp pp
-2.0000000000000000e+01 2.0000000000000000e+01
-2.0000000000000000e+01 2.0000000000000000e+01
-2.0000000000000000e+01 2.0000000000000000e+01
ITEM: ATOMS id type xs ys zs
1 1 0.593909 0.41152 0.351355
2 1 0.599807 0.416593 0.374541
3 1 0.615342 0.420774 0.393277
4 1 0.62008 0.421378 0.41615
7 1 0.627887 0.416679 0.459992
6 1 0.644627 0.411519 0.438723
5 1 0.627772 0.434716 0.436431
8 1 0.617337 0.442336 0.468194
9 1 0.639859 0.435931 0.470157
10 1 0.658775 0.436153 0.455851
ITEM: TIMESTEP
48000
ITEM: NUMBER OF ATOMS
10
ITEM: BOX BOUNDS pp pp pp
-2.0000000000000000e+01 2.0000000000000000e+01
-2.0000000000000000e+01 2.0000000000000000e+01
-2.0000000000000000e+01 2.0000000000000000e+01
ITEM: ATOMS id type xs ys zs
1 1 0.593799 0.411445 0.351082
2 1 0.59981 0.416708 0.374992
3 1 0.615767 0.420862 0.393344
4 1 0.620241 0.421343 0.416636
7 1 0.627228 0.415583 0.459939
6 1 0.643718 0.411538 0.438661
5 1 0.627749 0.434896 0.436367
8 1 0.615937 0.441835 0.467395
9 1 0.639253 0.435909 0.46976
10 1 0.658859 0.435676 0.452058
ITEM: TIMESTEP
49000
ITEM: NUMBER OF ATOMS
10
ITEM: BOX BOUNDS pp pp pp
-2.0000000000000000e+01 2.0000000000000000e+01
-2.0000000000000000e+01 2.0000000000000000e+01
-2.0000000000000000e+01 2.0000000000000000e+01
ITEM: ATOMS id type xs ys zs
1 1 0.593696 0.411377 0.350837
2 1 0.599817 0.416818 0.375427
3 1 0.616178 0.420946 0.393382
4 1 0.620413 0.421323 0.417162
7 1 0.626551 0.414869 0.459635
6 1 0.642225 0.412074 0.438913
5 1 0.627759 0.435002 0.436287
8 1 0.614781 0.440784 0.46644
9 1 0.63897 0.435983 0.469162
10 1 0.658673 0.435204 0.448514
ITEM: TIMESTEP
50000
ITEM: NUMBER OF ATOMS
10
ITEM: BOX BOUNDS pp pp pp
-2.0000000000000000e+01 2.0000000000000000e+01
-2.0000000000000000e+01 2.0000000000000000e+01
-2.0000000000000000e+01 2.0000000000000000e+01
ITEM: ATOMS id type xs ys zs
1 1 0.593604 0.411318 0.350635
2 1 0.599825 0.416923 0.375833
3 1 0.616577 0.421028 0.393407
4 1 0.62059 0.421312 0.4177
7 1 0.625812 0.414592 0.459169
6 1 0.640277 0.413035 0.439399
5 1 0.627796 0.435049 0.4362
8 1 0.614022 0.439173 0.465363
9 1 0.638944 0.436125 0.46817
10 1 0.658105 0.434748 0.445371
ITEM: TIMESTEP
51000
ITEM: NUMBER OF ATOMS
10
ITEM: BOX BOUNDS pp pp pp
-2.0000000000000000e+01 2.0000000000000000e+01
-2.0000000000000000e+01 2.0000000000000000e+01
-2.0000000000000000e+01 2.0000000000000000e+01
ITEM: ATOMS id type xs ys zs
1 1 0.593524 0.41127 0.350482
2 1 0.599832 0.417018 0.376201
3 1 0.616968 0.421107 0.393437
4 1 0.620765 0.421301 0.418221
7 1 0.624888 0.414725 0.458738
6 1 0.638151 0.414228 0.439919
5 1 0.627849 0.435066 0.436117
8 1 0.613717 0.437085 0.4642
9 1 0.639107 0.436298 0.466677
10 1 0.657128 0.434321 0.442716
ITEM: TIMESTEP
52000
ITEM: NUMBER OF ATOMS
10
ITEM: BOX BOUNDS pp pp pp
-2.0000000000000000e+01 2.0000000000000000e+01
-2.0000000000000000e+01 2.0000000000000000e+01
-2.0000000000000000e+01 2.0000000000000000e+01
ITEM: ATOMS id type xs ys zs
1 1 0.593458 0.411234 0.350387
2 1 0.599837 0.417105 0.376524
3 1 0.617351 0.421183 0.393483
4 1 0.620929 0.421278 0.4187
7 1 0.623601 0.415046 0.458701
6 1 0.636368 0.415187 0.44013
5 1 0.627895 0.435124 0.436043
8 1 0.613797 0.434784 0.463012
9 1 0.639395 0.436458 0.464644
10 1 0.655762 0.433943 0.440584
ITEM: TIMESTEP
53000
ITEM: NUMBER OF ATOMS
10
ITEM: BOX BOUNDS pp pp pp
-2.0000000000000000e+01 2.0000000000000000e+01
-2.0000000000000000e+01 2.0000000000000000e+01
-2.0000000000000000e+01 2.0000000000000000e+01
ITEM: ATOMS id type xs ys zs
1 1 0.593406 0.411212 0.350352
2 1 0.599841 0.41718 0.3768
3 1 0.617725 0.421257 0.393551
4 1 0.621074 0.42123 0.419109
7 1 0.622349 0.414439 0.459054
6 1 0.635401 0.415103 0.439997
5 1 0.627898 0.435341 0.435973
8 1 0.613748 0.433413 0.462024
9 1 0.639717 0.436562 0.462104
10 1 0.654089 0.433636 0.438943
ITEM: TIMESTEP
54000
ITEM: NUMBER OF ATOMS
10
ITEM: BOX BOUNDS pp pp pp
-2.0000000000000000e+01 2.0000000000000000e+01
-2.0000000000000000e+01 2.0000000000000000e+01
-2.0000000000000000e+01 2.0000000000000000e+01
ITEM: ATOMS id type xs ys zs
1 1 0.593371 0.411205 0.350381
2 1 0.599846 0.417245 0.377027
3 1 0.618089 0.421326 0.393645