LAMMPS data file via write_data, version 29 Aug 2024, timestep = 20000, units = lj

100 atoms
1 atom types
100 ellipsoids

0 5.503212081491045 xlo xhi
0 5.503212081491045 ylo yhi
0 4.402569665192836 zlo zhi

Atoms # ellipsoid/kk

5 1 1 14.92077591486519 1.2131987230659107 0.004192693875174671 0.31437882817451746 0 0 0
11 1 1 14.92077591486519 2.0954987439280135 0.7862760777529533 0.21258163321168047 0 0 0
13 1 1 14.92077591486519 3.502552813561274 0.24484347419382615 0.08955866469923832 0 0 0
17 1 1 14.92077591486519 4.823538071954121 0.09694239928634531 0.12226866565682308 0 0 0
15 1 1 14.92077591486519 3.22523835907122 1.3463756482644755 0.14737794971476073 0 0 0
4 1 1 14.92077591486519 5.377033104196059 1.360796763427175 0.568833862099514 -1 0 0
23 1 1 14.92077591486519 1.299595939272846 2.2107536813902517 0.5497840085459499 0 0 0
21 1 1 14.92077591486519 0.09626195287074733 2.3960744920182715 0.13985562115771782 0 0 0
28 1 1 14.92077591486519 3.5114043110811637 2.4586910469226515 0.670078357946402 0 0 0
31 1 1 14.92077591486519 0.1311224497027525 3.41430499327358 0.47975999054913737 0 0 0
35 1 1 14.92077591486519 1.1977411314238788 3.5222144090863288 0.17435978765854077 0 0 0
43 1 1 14.92077591486519 3.6497692016508005 3.4681692138101923 0.42192918878567853 0 0 0
46 1 1 14.92077591486519 3.2032859920046675 4.4894274103600145 0.7262056021871128 0 0 0
34 1 1 14.92077591486519 5.333834618290719 4.567236103220584 0.6569237828436908 -1 0 0
9 1 1 14.92077591486519 2.4948601342705383 5.202193566796582 0.18021428501456196 0 -1 0
49 1 1 14.92077591486519 4.159369177277781 4.707778632605736 0.18119229648180682 0 0 0
2 1 1 14.92077591486519 0.23924060205920272 0.1988197287243927 1.0372801888604446 0 0 0
10 1 1 14.92077591486519 2.4841422791291854 0.10017277511891241 1.1544159015917912 0 0 0
20 1 1 14.92077591486519 4.71172081563081 0.6475547198163705 1.1044810939236394 0 0 0
8 1 1 14.92077591486519 1.2303705341667575 0.9774359330529472 0.838366021754819 0 0 0
12 1 1 14.92077591486519 2.352976130516367 1.1765609974363835 1.2784065606987047 0 0 0
16 1 1 14.92077591486519 3.418438541521403 0.8691775341458531 1.2545393791224513 0 0 0
26 1 1 14.92077591486519 2.4317598264670788 2.206615326805389 0.8706044492363179 0 0 0
30 1 1 14.92077591486519 4.4423144423042205 1.9080125758034008 0.8637863018902369 0 0 0
22 1 1 14.92077591486519 5.46365466923885 2.2565500532642866 1.226254282041361 -1 0 0
36 1 1 14.92077591486519 1.4227410383174772 3.082233507375196 1.2094313380637112 0 0 0
48 1 1 14.92077591486519 4.659010896312493 2.957896561369864 0.8893533304692278 0 0 0
40 1 1 14.92077591486519 2.5439358639110075 3.270446134417602 0.8508414417777436 0 0 0
38 1 1 14.92077591486519 0.9823008712291122 4.132296033148991 1.2039251279058945 0 0 0
42 1 1 14.92077591486519 2.1409597830674754 4.482147009078686 0.9994121369159615 0 0 0
50 1 1 14.92077591486519 4.394423600733608 4.0276629313251355 1.113485962896987 0 0 0
6 1 1 14.92077591486519 1.2588341408383965 5.173594076626089 1.3653633188314875 0 -1 0
14 1 1 14.92077591486519 3.8732208399118755 5.227124623469772 1.2293146505693764 0 -1 0
69 1 1 14.92077591486519 4.271492459994877 0.487496350607881 2.153173214680929 0 0 0
53 1 1 14.92077591486519 0.27910942645166603 1.1554570909094894 1.7041342117926142 0 0 0
57 1 1 14.92077591486519 1.5641080813057886 0.9480292353776149 1.9917240140695476 0 0 0
24 1 1 14.92077591486519 1.1146266062145995 1.932868625136608 1.631509735334584 0 0 0
77 1 1 14.92077591486519 3.229447054393043 2.1756549274822974 1.7947159461630728 0 0 0
79 1 1 14.92077591486519 4.261142157326929 1.5699448528672042 1.880950215860476 0 0 0
75 1 1 14.92077591486519 1.9595856283286075 2.7482418448471275 2.158429752458081 0 0 0
97 1 1 14.92077591486519 4.434370379235791 2.6642204489997425 1.8840444463370953 0 0 0
32 1 1 14.92077591486519 0.06128710348931452 3.301863888872448 1.6007542187708033 0 0 0
89 1 1 14.92077591486519 2.503495020850652 3.671848926438623 1.880729977240646 0 0 0
44 1 1 14.92077591486519 3.5152752077959293 3.226405449654218 1.5199989312020707 0 0 0
91 1 1 14.92077591486519 2.032888295153663 4.677238250536527 2.105644630074877 0 0 0
95 1 1 14.92077591486519 3.2767070065855624 4.468806564858758 1.9268979527883585 0 0 0
83 1 1 14.92077591486519 5.184480424843175 4.283654547102381 2.047815389233306 -1 0 0
18 1 1 14.92077591486519 4.92141878143351 5.145268833372141 1.5257997050506538 0 -1 0
59 1 1 14.92077591486519 2.0124562517926075 0.21608508541518717 2.6720003095957017 0 0 0
51 1 1 14.92077591486519 5.406106292724915 0.24075562188693764 2.2819854838265594 -1 0 0
58 1 1 14.92077591486519 0.5789095399759471 0.9791167314454874 2.7730861464830405 0 0 0
65 1 1 14.92077591486519 3.3563153225084115 1.124331685582236 2.4152042949023396 0 0 0
54 1 1 14.92077591486519 4.974026013226693 1.216754094125117 2.5904391434158383 -1 0 0
73 1 1 14.92077591486519 1.1470330205649357 1.8836126272581897 2.7111296466169876 0 0 0
61 1 1 14.92077591486519 2.2668643026817894 1.654009357596204 2.442429030257151 0 0 0
78 1 1 14.92077591486519 3.1880328831319718 2.1466127299405433 2.880533862838628 0 0 0
71 1 1 14.92077591486519 5.468589420256572 2.1979998045642026 2.3663068547984794 -1 0 0
85 1 1 14.92077591486519 0.8088875200459117 2.892061812300706 2.2612712207012513 0 0 0
98 1 1 14.92077591486519 4.3719447736974955 3.0252280989426397 2.911235998780738 0 0 0
93 1 1 14.92077591486519 3.3204260899051965 3.231055228862976 2.6354792401555867 0 0 0
99 1 1 14.92077591486519 4.174206059697812 3.8573837997870224 2.196452083183423 0 0 0
87 1 1 14.92077591486519 0.901124688585261 4.162436322944642 2.262026139757104 0 0 0
55 1 1 14.92077591486519 0.8754180577102694 5.333558579977386 2.338930638384504 0 -1 0
63 1 1 14.92077591486519 3.283953147061139 5.463432408818492 2.48390722870488 0 -1 0
67 1 1 14.92077591486519 4.534480114375445 4.957039309144613 2.616167156370376 0 -1 0
64 1 1 14.92077591486519 2.937654264535244 0.14954710320559997 3.523965404843234 0 0 0
52 1 1 14.92077591486519 5.1669810086285 0.2016219122521977 3.467373132586462 -1 0 0
62 1 1 14.92077591486519 1.5918155133442011 1.1768750139276516 3.5442405153757397 0 0 0
66 1 1 14.92077591486519 2.696290245601416 1.1581789061292118 3.2897050107164376 0 0 0
70 1 1 14.92077591486519 3.856499551668752 0.8600787758599608 3.3963431384622855 0 0 0
3 1 1 14.92077591486519 5.360177165859272 1.4186536030086236 3.6128576661477734 -1 0 -1
80 1 1 14.92077591486519 4.294066627178836 1.9386964396079156 3.13205972868286 0 0 0
76 1 1 14.92077591486519 2.1011087969437607 2.473377669645065 3.2044239323293358 0 0 0
72 1 1 14.92077591486519 5.473796748624476 2.5208139565960024 3.4431910538680697 -1 0 0
86 1 1 14.92077591486519 1.183382035663763 3.5051963930020644 3.1346773190915784 0 0 0
90 1 1 14.92077591486519 2.313645154806182 3.5894023477087087 3.0457573774346383 0 0 0
81 1 1 14.92077591486519 5.356966723631544 3.4914323101927214 2.8757717180357654 -1 0 0
84 1 1 14.92077591486519 0.20128018775121492 4.643052611985093 2.97349234628553 0 0 0
88 1 1 14.92077591486519 1.3351053000257826 4.563226247172904 3.202137066703015 0 0 0
96 1 1 14.92077591486519 3.505383796694182 4.5219749169499925 3.014133601788858 0 0 0
100 1 1 14.92077591486519 4.452435878920024 4.075469472782134 3.2475626633139254 0 0 0
56 1 1 14.92077591486519 0.7203953312752628 5.464081596133317 3.5007250667943004 0 -1 0
92 1 1 14.92077591486519 2.4229278076871794 4.739672399654574 3.1575639351148372 0 0 0
68 1 1 14.92077591486519 4.134566321231248 5.313116175650459 3.63858106548147 0 -1 0
1 1 1 14.92077591486519 0.3163784450432088 0.4685706481437444 4.3746613839921125 0 0 -1
60 1 1 14.92077591486519 1.7697972677712863 0.029507042215703983 3.8058471265412734 0 0 0
7 1 1 14.92077591486519 0.7173335140697371 1.506270040361606 4.2796505606990936 0 0 -1
19 1 1 14.92077591486519 4.368924978677776 1.1460562924439421 4.325436260133042 0 0 -1
25 1 1 14.92077591486519 2.2824098771145254 1.928868474049787 4.11807144396311 0 0 -1
27 1 1 14.92077591486519 3.44357179131061 2.2241201786474747 3.9103034497543305 0 0 -1
74 1 1 14.92077591486519 1.044608153591521 2.598871245772173 3.92347454030813 0 0 0
39 1 1 14.92077591486519 2.2515634791396284 3.0670395538351887 4.149233855710846 0 0 -1
29 1 1 14.92077591486519 4.524108455960883 2.513317070500371 4.001428757342559 0 0 -1
82 1 1 14.92077591486519 0.3807599294191557 3.6974524492354615 3.8610326922826665 0 0 0
94 1 1 14.92077591486519 3.663563477682166 3.2896556298985042 3.695338341225876 0 0 0
47 1 1 14.92077591486519 4.648806607051974 3.607858925053696 4.399237982694781 0 0 -1
37 1 1 14.92077591486519 0.824900447987393 4.625953209651042 4.17010953913926 0 0 -1
41 1 1 14.92077591486519 2.0337129441594683 4.229778908423937 4.294011115589707 0 0 -1
45 1 1 14.92077591486519 3.071497173563554 4.198775295996885 3.9553072187016127 0 0 -1
33 1 1 14.92077591486519 5.078056504599282 4.711784914448587 3.8925912500000392 -1 0 -1

Velocities

5 0.030010007811099592 -0.22722849963511446 0.28860194500847747 0 0 0
11 -0.28120441981179967 0.4379676194864859 -0.25205093080604646 0 0 0
13 -0.1562701400206591 0.2274477744548815 0.46151663246945684 0 0 0
17 -0.24726417419815944 0.33146542037834326 0.42610421830999234 0 0 0
15 0.06829626102924176 -0.03397126003660816 0.49365754725117594 0 0 0
4 -0.17133924973158757 -0.39822295562285037 0.49731400152112537 0 0 0
23 -0.11039918087883371 -0.3588715787284296 0.5402833555821502 0 0 0
21 0.240171017265401 -0.16476958908867298 -0.1884467887296834 0 0 0
28 0.09618075760085434 -0.06512799182355013 0.3397247927850973 0 0 0
31 -0.0643219961621772 0.28115785617320654 0.5420683211798222 0 0 0
35 0.0024715467539153783 -0.2623053087387243 0.5260245172728458 0 0 0
43 0.23463234389226725 0.882812547240632 0.16394986680153256 0 0 0
46 0.3917478895912373 0.38553825059072494 0.4744806430667844 0 0 0
34 -0.4354873130612144 -0.14554813008073292 -0.17621840450314252 0 0 0
9 0.3008282180327382 -0.0638857582657351 -0.6169718742107145 0 0 0
49 0.12143785243906305 -0.3350458405690751 -0.18327220834322994 0 0 0
2 -0.2628523349137875 0.3449268823640232 -0.09584683758766635 0 0 0
10 -0.18796238757433423 -0.21850129881495214 -0.2421945927780683 0 0 0
20 0.10216202471958152 -0.06466483870579681 0.26934419127015186 0 0 0
8 0.07507913786591575 0.4096066043988787 -0.08041176537297075 0 0 0
12 0.28886040546070463 0.236510498460638 0.27962376054819277 0 0 0
16 0.018768242709362074 -0.16183988946509503 -0.13781461288795438 0 0 0
26 -0.3398270596556503 0.046029059232201 -0.14375856988632832 0 0 0
30 -0.21434320007647115 -0.4411413641694981 0.19542430922145942 0 0 0
22 0.0409358879640944 0.06611311385272446 0.21116037653240557 0 0 0
36 -0.2616102107595487 0.3268558626845419 -0.6846030809222459 0 0 0
48 -0.05298603783958157 -0.10021796840450999 -0.6161332600885632 0 0 0
40 -0.037425031627480836 -0.3639457264680003 0.11750286826336945 0 0 0
38 0.3422576287765613 0.3359883504225719 -0.12317327592787683 0 0 0
42 0.20625175720979497 -0.0016394949027727175 0.08771846776331327 0 0 0
50 -0.12816746582886862 -0.062051358384936806 0.15242098129637152 0 0 0
6 0.057406805738764215 0.035074298445676236 -0.3823120631186366 0 0 0
14 -0.1731421591638536 -0.4166504891118159 -0.17084103332207762 0 0 0
69 0.0072253217562100154 0.3938693333965815 0.33175612469905574 0 0 0
53 0.1150452231565581 0.4897208129256178 0.38360055647355046 0 0 0
57 -0.40783015664566713 0.11798659986045561 0.22692239415835064 0 0 0
24 0.2478303340407115 -0.26641984170984123 0.3394888880352068 0 0 0
77 -0.44416390690696234 0.01921457284574479 -0.24810005729553167 0 0 0
79 0.11519090125274602 -0.5169674185644236 0.01110081125915734 0 0 0
75 -0.09151475223458523 0.3666006508673113 -0.28038513934902803 0 0 0
97 -0.2916591554133925 -0.5872585155674263 -0.3254020337334388 0 0 0
32 -0.2061319336451429 0.15418960687394856 -0.0913238841342174 0 0 0
89 0.18794016214097947 0.01761888644844717 -0.618153094212873 0 0 0
44 0.11553058422437308 -0.2940307606993901 -0.23886025282512435 0 0 0
91 -0.03261698992833906 -0.1450805383560855 -0.018305440568711084 0 0 0
95 0.4798158660296827 -0.20610879195876441 -0.3672980431390522 0 0 0
83 0.5539104924501924 0.014364418306359969 -0.6525347306084466 0 0 0
18 -0.36923910944815896 -0.49132416170794607 -0.6909130601120773 0 0 0
59 -0.3517922583651268 0.28792636242527386 -0.5297474866708675 0 0 0
51 -0.10092522363364806 0.163435289681484 0.07988407222009823 0 0 0
58 0.09428827315107863 -0.021696189972265034 -0.26450577467528996 0 0 0
65 -0.35297461081790527 -0.2737308633487099 -0.029940831842611846 0 0 0
54 0.17020763301340802 -0.5700972070273328 0.1254713453150684 0 0 0
73 -0.4054783312744041 0.41096162181041973 0.17633860332566928 0 0 0
61 -0.11109807344858624 -0.030392600785697495 0.2564312202224709 0 0 0
78 -0.13283517981818777 -0.3118063509994548 -0.13942733227870324 0 0 0
71 0.001442899503359246 -0.09630028231655328 -0.20427770577275836 0 0 0
85 -0.07532000075467625 0.2940931535089991 -0.44056630565006 0 0 0
98 -0.2631982072241126 -0.10003454397805647 0.3871569257542631 0 0 0
93 -0.5524654820861911 0.0814941590379291 0.5042626097747774 0 0 0
99 -0.08188132528302015 -0.20079227773030917 -0.2765342560764276 0 0 0
87 0.4361694225279424 0.4358080347318408 0.5633992144205952 0 0 0
55 -0.04156183687606494 0.29141285501339015 -0.1267268339193605 0 0 0
63 0.16719154376178672 0.19257608550180125 0.3797492106254402 0 0 0
67 -0.4529981637233069 0.2875877502131843 0.3771503272761262 0 0 0
64 -0.0912304931953534 0.4317032240314943 -0.13044187158124396 0 0 0
52 0.27969680159184623 0.1602236382004195 -0.39638361325665433 0 0 0
62 -0.11786777901814224 -0.40247764950926446 -0.04359428558787585 0 0 0
66 -0.021643669075084675 0.13448320138184125 0.6298531764531777 0 0 0
70 0.23344947544462938 0.5063040156645439 -0.21548318703390282 0 0 0
3 0.39963815126932384 -0.06997506265315173 0.3640066945136417 0 0 0
80 -0.05880714224961277 -0.23949220603350932 0.20766599788089235 0 0 0
76 0.07123034180451965 -0.07503228202512356 -0.001140349458175751 0 0 0
72 0.21110606108834415 0.40884845625350547 -0.3218589346915833 0 0 0
86 0.26409338070498545 -0.00354935078440463 0.26388363823215977 0 0 0
90 0.6895940259480858 -0.6931937118922766 -0.456902215876945 0 0 0
81 0.4568996391933048 0.09948756242889219 -0.8957818048145768 0 0 0
84 -0.09901849070905004 -0.27043164686315196 0.4015222503999976 0 0 0
88 0.03699666983514964 0.17083863980227013 -0.6696935418675578 0 0 0
96 0.008216308678125355 -0.2567784116639987 0.4957825938301117 0 0 0
100 -0.3696424972170888 -0.19380133840142588 -0.2023915917181708 0 0 0
56 -0.30485898777567316 -0.06323771299650657 -0.5838344375904788 0 0 0
92 -0.27698601380938354 0.19895740418028024 -0.07785408953052127 0 0 0
68 -0.11604877785994659 0.15218489547840258 -0.23572608336394596 0 0 0
1 0.07632965629066492 -0.4627612066961394 -0.03592248827151056 0 0 0
60 -0.24124126319682468 -0.8797483905877131 -0.42117533771979815 0 0 0
7 -0.4719357909042143 0.8197640765531833 0.375779469121468 0 0 0
19 0.4259359135444758 -0.30362422701995545 0.2058231565539431 0 0 0
25 0.06501030800785094 0.19795052188665985 0.2165760155637334 0 0 0
27 0.19513000204574785 -0.11402180264946475 0.16172747156807749 0 0 0
74 0.05675228143728829 0.04304901875169952 -0.0841490288846244 0 0 0
39 -0.02778367361086454 0.1299594631037722 0.3566936644038356 0 0 0
29 -0.11163101746789023 0.19257187158188507 0.20857110959034947 0 0 0
82 0.0606644588381103 -0.6379304522994984 -0.058754236324785186 0 0 0
94 0.23251726555421698 -0.2646051685249148 0.15408492846331429 0 0 0
47 0.008874328194049076 0.3994552055288126 0.1707396424441311 0 0 0
37 0.33851921822319897 0.34489574392495465 0.2602749974941643 0 0 0
41 -0.0012407929533006805 0.025148853656119585 0.15188472175192155 0 0 0
45 0.32349943814205445 -0.09929677238346055 -0.12188252762543801 0 0 0
33 0.4567832801682095 0.24544695468000183 -0.24448144142093317 0 0 0

Ellipsoids

5 0.4 0.4 0.8 -0.8201868888528709 -0.079787876086599 -0.3826168807309004 0.41776989451514307
11 0.4 0.4 0.8 0.38859123247990973 0.15476041343427147 -0.9040012116964022 -0.08847529443203075
13 0.4 0.4 0.8 -0.020541353957190263 0.5820595420817216 -0.46694402696915216 0.6653931303575756
17 0.4 0.4 0.8 -0.29204745674888904 -0.07223808799842024 0.36141359336539686 0.8825362067244322
15 0.4 0.4 0.8 0.2722664083710454 -0.0032687829596919162 0.19963419630861098 0.9412791857865065
4 0.4 0.4 0.8 0.5775973754583936 -0.17812044924920137 -0.4053988160425219 -0.6857887264851763
23 0.4 0.4 0.8 -0.8371183966465895 0.20552858063365775 -0.5001101090842202 0.08294981211748882
21 0.4 0.4 0.8 -0.29812942698057243 0.6660589610987994 -0.38932474273645756 -0.562059204889854
28 0.4 0.4 0.8 -0.3189924423623961 0.1312734147870974 -0.7359439456786364 0.5825784248534855
31 0.4 0.4 0.8 0.1496197021315966 0.6116225783345673 0.6909424076147525 0.3551483574014638
35 0.4 0.4 0.8 -0.18789531292826525 0.39763972500405936 0.0628059195739834 -0.8958981063406439
43 0.4 0.4 0.8 0.24930803046291716 -0.6260682687567817 -0.3216313381681578 -0.6651596132589137
46 0.4 0.4 0.8 0.014198339665404678 -0.9144655887726524 -0.005129966710056496 0.40438196985398056
34 0.4 0.4 0.8 0.5687084572413182 -0.1730633039803444 -0.8034732028556979 -0.032412895125444985
9 0.4 0.4 0.8 -0.17058668077641548 -0.6654552900604882 0.6670543714674075 0.2882844199370107
49 0.4 0.4 0.8 0.0744182769743064 0.21388810786041063 0.8728967721116063 -0.4321631897850711
2 0.4 0.4 0.8 0.02425649887001293 -0.19052881644069816 0.950394466054519 -0.24466456887179575
10 0.4 0.4 0.8 0.21746947492763655 0.77398974574083 0.17340618499497332 0.5688384621034627
20 0.4 0.4 0.8 0.33045229097926426 -0.16263016623841875 -0.33938858328218247 -0.865544973963533
8 0.4 0.4 0.8 0.9332136468749389 -0.10106528839873798 0.0850133641085202 -0.3341718490390968
12 0.4 0.4 0.8 -0.2884133939779575 -0.3090195109120436 -0.6714112699447559 0.6087130380080316
16 0.4 0.4 0.8 0.1709385119332148 0.6167728746436427 0.7292623131148154 -0.24196637144922578
26 0.4 0.4 0.8 0.22444892705197517 0.6038994147876924 -0.7498512334200998 -0.15050350063255943
30 0.4 0.4 0.8 -0.11691012703965126 0.17021481437207991 -0.917251625326306 -0.34060005138006205
22 0.4 0.4 0.8 -0.6557996066854527 0.5584446608284588 0.3085802154879212 0.4035401928839574
36 0.4 0.4 0.8 0.04271921040697795 0.9113473774278525 0.19916265080542098 0.3577083522113202
48 0.4 0.4 0.8 -0.47967252573203034 -0.012075740026867104 -0.805468855552015 -0.34783382138082214
40 0.4 0.4 0.8 -0.334211514932588 0.030729966282579683 -0.6458529021736669 0.6857349059312849
38 0.4 0.4 0.8 -0.7944685864849454 0.020470611918823996 -0.3854824868835113 -0.46883245561968667
42 0.4 0.4 0.8 0.5720037722533351 0.15229014848780253 -0.6310873543583859 0.5013463337558689
50 0.4 0.4 0.8 -0.4905357036603709 -0.30799414302859784 -0.5392379628174903 -0.6113401268941436
6 0.4 0.4 0.8 -0.26341334692945817 -0.07001721328540997 0.892796504352268 -0.35864383491081675
14 0.4 0.4 0.8 0.1379918014630709 -0.24989982951819145 0.5927643084339791 -0.7530861920009833
69 0.4 0.4 0.8 0.35487425439653514 -0.16137732423372755 -0.6754438769732876 -0.6259370510274658
53 0.4 0.4 0.8 0.06809527366323892 0.11810601325463395 0.3689235148014106 -0.9194071152456882
57 0.4 0.4 0.8 -0.16221050365808176 0.7090549844965999 -0.4375562405528498 -0.5286523600786955
24 0.4 0.4 0.8 -0.9631936557942145 -0.06434126896587909 0.014709719224150835 0.26057975114345194
77 0.4 0.4 0.8 0.0828503799423918 0.15204503958606133 0.5140620983606498 0.8400942087109755
79 0.4 0.4 0.8 0.4114634179681715 -0.04847001557627906 -0.06720771914302336 -0.9076517150050329
75 0.4 0.4 0.8 0.05630349183375469 -0.07365119151955896 0.9196247686266943 0.3817010659185726
97 0.4 0.4 0.8 -0.3150264040652747 0.7332857524507241 0.3703767321634938 -0.47525934632195205
32 0.4 0.4 0.8 -0.4255129534586185 0.8247486772546224 -0.18422643616394133 -0.32371123864334334
89 0.4 0.4 0.8 0.7572778804357065 0.0329097310869496 0.6021415383472478 0.2507443502841059
44 0.4 0.4 0.8 0.6353022493207525 -0.1045615146664165 -0.750150226805381 -0.15077326978775962
91 0.4 0.4 0.8 0.5034485563946837 0.11398430481258147 -0.8431157438263513 0.15067505378343118
95 0.4 0.4 0.8 -0.38424578317725727 -0.5815191641100408 0.6707508646745222 0.2535427329300458
83 0.4 0.4 0.8 0.1454578103562729 -0.5168795093152135 0.8136566231007761 0.22280147652263033
18 0.4 0.4 0.8 -0.36774321524721637 -0.6386751864209185 0.64658082012393 -0.1969572972441251
59 0.4 0.4 0.8 -0.14614312859973574 -0.2722251427814296 0.8519396703822956 -0.4227699795747293
51 0.4 0.4 0.8 -0.06166505936167259 -0.18062944718719942 0.6598445352908965 0.726756914318336
58 0.4 0.4 0.8 -0.028957758894307475 -0.3550080546907442 -0.641952777260438 -0.6789899565325863
65 0.4 0.4 0.8 0.638398800788354 -0.4844959380199076 0.19375878256473733 -0.5658340669959986
54 0.4 0.4 0.8 0.8176761742815017 -0.47225640868772956 -0.1068503544028646 0.31138811831814955
73 0.4 0.4 0.8 0.3656491161850665 0.03511307760680005 0.9293567359773877 0.03693037919538613
61 0.4 0.4 0.8 0.3698964515577882 -0.6358253249616104 0.5172982483308418 0.43738460596626183
78 0.4 0.4 0.8 -0.09138853037825656 0.3039000266172499 0.4050672134163455 -0.8574458950583729
71 0.4 0.4 0.8 -0.17421258843545115 -0.8154468084640693 0.4865839131752669 0.2606387769220614
85 0.4 0.4 0.8 -0.9320788225608667 -0.22960879199211576 0.18657778943830397 -0.20903970833740107
98 0.4 0.4 0.8 0.4840845187948722 -0.027644152083275145 0.4175428572593255 0.768476376911127
93 0.4 0.4 0.8 -0.8517790299586195 -0.48678842216970547 0.19354016517312367 -0.007191705572515008
99 0.4 0.4 0.8 0.5106043985678193 -0.21183822375877792 -0.2463713656686393 0.7960583303354668
87 0.4 0.4 0.8 -0.8354896403490518 -0.5377030907059603 -0.11230196955566289 0.014856471606300463
55 0.4 0.4 0.8 0.14386446030819025 -0.4151406611147074 0.8698052204509261 -0.22449972611518426
63 0.4 0.4 0.8 0.23524344446987352 -0.7647130693005662 -0.14405578257469573 0.5823421459774734
67 0.4 0.4 0.8 -0.521095225381831 0.647851872594453 0.552247954721407 -0.06139962350163418
64 0.4 0.4 0.8 -0.020794939097666516 -0.7992013006726854 0.025851495976443536 -0.6001471083549368
52 0.4 0.4 0.8 -0.8513989935462929 0.5092057040550194 0.08085654601961037 -0.09639255008541907
62 0.4 0.4 0.8 -0.023652531366884375 0.3210924513998238 -0.9004651860752534 0.29240835159148526
66 0.4 0.4 0.8 0.9393362526499307 -0.06629773047888425 -0.22654523959314596 0.2488559217873246
70 0.4 0.4 0.8 0.8774898676349218 0.3130947357481585 -0.3600714615994122 -0.048288313146159174
3 0.4 0.4 0.8 -0.2957525355920123 -0.6902552704681819 -0.6452076599701534 -0.14065978386742858
80 0.4 0.4 0.8 0.2723845493694607 -0.21154649569070846 -0.19287328358029016 -0.9186156072627625
76 0.4 0.4 0.8 0.11921314352819531 -0.7376676391014865 0.5940720555037582 -0.29784739969001695
72 0.4 0.4 0.8 -0.4623750106319617 -0.8851968867653035 0.04479292144670574 0.025088152430521458
86 0.4 0.4 0.8 0.10068461753756888 0.04319319502611902 0.36772133301036264 -0.9234597863165624
90 0.4 0.4 0.8 0.7035188331263785 -0.6008796218871133 -0.3346349679237365 0.17895354056284735
81 0.4 0.4 0.8 0.4062347865898662 0.7755158999971316 0.4764764019301991 0.08073800480304452
84 0.4 0.4 0.8 0.29606868542871434 -0.43977578988603144 -0.5062156771434607 -0.6802104647480938
88 0.4 0.4 0.8 -0.07371176996149902 0.48747018406573356 -0.8467994234109024 0.19967506385882564
96 0.4 0.4 0.8 0.6141171915770359 -0.17115102141386312 0.6892193494148933 -0.34430232539243294
100 0.4 0.4 0.8 0.13274711506150724 0.7312921578677674 -0.6686570044139749 0.02208605288594925
56 0.4 0.4 0.8 -0.2960308682002676 0.6940593060121217 -0.6406153498580504 -0.14233544300986836
92 0.4 0.4 0.8 -0.40155522170517893 -0.013775363783129645 0.11744621869752528 -0.9081685025300096
68 0.4 0.4 0.8 0.09431753884610314 0.18383690049473142 -0.7238645563271804 0.6582767654837579
1 0.4 0.4 0.8 -0.18335027296774725 0.5454699141174355 -0.7102716319687384 -0.4054127020899016
60 0.4 0.4 0.8 -0.5602146996380465 0.29946244021944274 -0.02836343929696212 0.771801303781302
7 0.4 0.4 0.8 -0.001207910523568374 0.1633334387312661 -0.985711935992759 0.04114253256417048
19 0.4 0.4 0.8 0.5113019882278463 0.6188602047988448 -0.29991764699458007 -0.5153947310283813
25 0.4 0.4 0.8 -0.08410673611992203 0.49752099765720353 0.8087006608908376 0.3023278930303276
27 0.4 0.4 0.8 0.25220083895829387 -0.5816883807873402 0.6631094241430371 -0.39789352356933977
74 0.4 0.4 0.8 -0.5295234018728132 0.7098796169700026 -0.3331279836862364 0.32357633220726817
39 0.4 0.4 0.8 -0.012165745607611422 0.3999901328385855 0.033423790916830856 -0.9158289897499039
29 0.4 0.4 0.8 -0.0585047691816267 -0.37862329750298845 0.7000115307534552 -0.6026652863598271
82 0.4 0.4 0.8 0.562577804198991 -0.05581236162840736 0.25833862003942965 -0.783359656804092
94 0.4 0.4 0.8 -0.029257776059315916 -0.39507433039017087 0.8517381292395678 0.34293208541386516
47 0.4 0.4 0.8 -0.0805923803115347 0.8565533941451003 0.3767656886651189 0.3433202106764589
37 0.4 0.4 0.8 0.0799235124437039 -0.5368036342244162 -0.4538752320576564 -0.7067187305899916
41 0.4 0.4 0.8 0.6749328069228315 0.10496945719293006 0.514950436086291 -0.5179509316242497
45 0.4 0.4 0.8 0.3033791297276849 -0.037161217962040305 0.024328935171818004 -0.9518341506999295
33 0.4 0.4 0.8 0.9040055921111091 -0.17896947741394426 -0.24502792315893837 -0.30117292783123895
