LAMMPS data file via write_data, version 19 Nov 2024, timestep = 100000, units = lj

9261 atoms
1 atom types
9261 ellipsoids

0 23.113490742262385 xlo xhi
0 23.113490742262385 ylo yhi
0 23.113490742262385 zlo zhi

Atoms # ellipsoid/kk

4 1 1 5.968310365946075 0.27370367938402407 0.5364756461514256 0.8673195751065724 0 0 0
10 1 1 5.968310365946075 2.1818459021244347 0.7375109419183503 0.38924342280299246 0 0 0
18 1 1 5.968310365946075 4.076524677695529 0.12223101914855763 0.1845927179924094 0 0 0
26 1 1 5.968310365946075 6.90253574098667 0.5601790971804003 0.1937541990032488 0 0 0
45 1 1 5.968310365946075 12.48440582499938 0.12395114486665547 0.22897545876644884 0 0 0
57 1 1 5.968310365946075 15.20742574870843 0.22594360601522986 0.493695813099666 0 0 0
69 1 1 5.968310365946075 18.105086185148114 0.21735817999642723 0.47505832544926974 0 0 0
15 1 1 5.968310365946075 3.20388210041026 0.9159488052117761 0.31875303572476144 0 0 0
19 1 1 5.968310365946075 4.28788118937208 1.2394933289159809 0.059243362088628876 0 0 0
105 1 1 5.968310365946075 5.371584186027487 1.429090794767786 0.14800000283265308 0 0 0
35 1 1 5.968310365946075 7.761847734969996 1.4868323025555137 0.6188834396776864 0 0 0
39 1 1 5.968310365946075 9.72028014503811 0.8770592622578984 0.07537715571014621 0 0 0
43 1 1 5.968310365946075 11.066425474779166 0.9000670370202375 0.5359907269691901 0 0 0
47 1 1 5.968310365946075 12.345858749860227 1.26838042947115 0.23430038190728786 0 0 0
56 1 1 5.968310365946075 14.301667981443355 1.2260333981217197 0.5204376619555526 0 0 0
59 1 1 5.968310365946075 15.421152466123655 1.45076102070908 0.0418242863779074 0 0 0
157 1 1 5.968310365946075 18.866347319805804 0.9561256248065685 0.12962941353831867 0 0 0
83 1 1 5.968310365946075 19.955870218479863 1.2708775072094853 0.005807918838834672 0 0 0
165 1 1 5.968310365946075 21.069874074965014 1.1289694201684721 0.11780619308149284 0 0 0
3 1 1 5.968310365946075 22.31792431794754 1.318757417693381 0.4869010930770066 -1 0 0
86 1 1 5.968310365946075 0.27344744559665346 1.5578958220126706 0.39103895044986436 0 0 0
11 1 1 5.968310365946075 1.3195798481866863 2.0451785309266706 0.4188700688047112 0 0 0
12 1 1 5.968310365946075 2.4715246082222184 1.9190679307546972 0.690058739137753 0 0 0
110 1 1 5.968310365946075 6.48325718993927 2.0199279232927663 0.11672804863376637 0 0 0
121 1 1 5.968310365946075 8.710033280994287 1.616294845455389 0.11407266106587885 0 0 0
149 1 1 5.968310365946075 16.646334868753723 2.0504122216905567 0.2633288388282828 0 0 0
8533 1 1 5.968310365946075 18.574086128327497 2.0149197716731333 0.2318469661422488 0 0 1
88 1 1 5.968310365946075 21.448522110200305 2.18917958076072 0.20215944971383498 -1 0 0
101 1 1 5.968310365946075 4.265069185940652 2.391681393398939 0.04110093812733258 0 0 0
103 1 1 5.968310365946075 5.421465678875186 2.528118198200049 0.06251565248900541 0 0 0
129 1 1 5.968310365946075 12.355592385034724 2.4773242807792193 0.39628254695841975 0 0 0
134 1 1 5.968310365946075 14.04866343942112 2.6731881477738795 0.0014935713844308315 0 0 0
141 1 1 5.968310365946075 14.858816383204015 2.2459289194994323 0.6370194431430517 0 0 0
161 1 1 5.968310365946075 19.783616373404442 2.442297185071739 0.22980002420387563 0 0 0
92 1 1 5.968310365946075 22.653457779924192 2.4655049238087647 0.5123026663645757 -1 0 0
94 1 1 5.968310365946075 1.378969862324579 3.085092613989816 0.721300073481518 0 0 0
104 1 1 5.968310365946075 3.5227296329072493 2.965095102318994 0.6484210983610602 0 0 0
111 1 1 5.968310365946075 6.863560303455926 2.842734108145852 0.596060452122438 0 0 0
1081 1 1 5.968310365946075 7.7100354370863915 3.4635325066499614 0.07995751713942427 0 0 0
119 1 1 5.968310365946075 9.600605307602782 3.3093042645710145 0.09262706775814358 0 0 0
131 1 1 5.968310365946075 12.051249804147782 3.481250846374696 0.5953528750732541 0 0 0
140 1 1 5.968310365946075 15.022152293405814 3.321221790158409 0.32171972644602814 0 0 0
151 1 1 5.968310365946075 16.80869821784328 3.314236851925045 0.7190908539421565 0 0 0
8547 1 1 5.968310365946075 20.600184920098506 3.164373087898072 0.1218968314348434 0 0 1
249 1 1 5.968310365946075 21.664134891469857 3.236610217919133 0.432213103960861 0 0 0
174 1 1 5.968310365946075 0.6699076243852607 4.100897628971 0.41809584314563986 0 0 0
95 1 1 5.968310365946075 3.0257065473599387 3.95833646960476 0.20042316730225473 0 0 0
189 1 1 5.968310365946075 5.250342015886938 4.330560386338273 0.5751691513774194 0 0 0
197 1 1 5.968310365946075 6.820483667606618 4.197066456368226 0.035460580664149075 0 0 0
123 1 1 5.968310365946075 11.181548655878693 3.8975603672455668 23.09563169024134 0 0 -1
136 1 1 5.968310365946075 12.972138452856148 4.188065128631902 0.3050676492367429 0 0 0
135 1 1 5.968310365946075 14.064509008956227 3.902712172201713 0.27151236708410975 0 0 0
8539 1 1 5.968310365946075 19.531756341731096 3.6817470254930496 23.053935311937355 0 0 0
169 1 1 5.968310365946075 22.735227569133677 3.7125177268352725 0.4077645686225778 -1 0 0
186 1 1 5.968310365946075 4.083966073672124 4.396890659145097 0.554309659472426 0 0 0
194 1 1 5.968310365946075 6.225362255979098 4.99715556217758 0.4935043238937648 0 0 0
205 1 1 5.968310365946075 10.320789693872436 4.706210634939672 0.22468130129286373 0 0 0
222 1 1 5.968310365946075 14.702786068163109 4.7913066698200915 0.48279441426453323 0 0 0
230 1 1 5.968310365946075 16.011392028605727 4.566353339931989 0.722102694928732 0 0 0
233 1 1 5.968310365946075 17.178000017386502 4.7812961563795415 0.1346692344906361 0 0 0
245 1 1 5.968310365946075 19.516029192503435 4.720640255458295 0.38454284528996 0 0 0
163 1 1 5.968310365946075 21.285820560149553 4.373098765636527 0.2404090619770021 0 0 0
251 1 1 5.968310365946075 22.921277545251126 4.79874757512217 0.3847136212339531 0 0 0
171 1 1 5.968310365946075 0.8221510563777416 5.25512532170766 0.5219631014557611 0 0 0
183 1 1 5.968310365946075 2.673327584510787 5.776217876637401 0.34420672692157334 0 0 0
188 1 1 5.968310365946075 3.7485490656200184 5.553338007926759 0.5970777656688359 0 0 0
192 1 1 5.968310365946075 5.006541965925565 5.549828688098699 0.48885743895040323 0 0 0
195 1 1 5.968310365946075 7.355700172801185 5.371845534147205 0.5542426486515638 0 0 0
211 1 1 5.968310365946075 11.233429193291647 5.523756679878923 0.5700042808098964 0 0 0
215 1 1 5.968310365946075 12.172928199540337 5.154749654224148 0.19452428651942047 0 0 0
220 1 1 5.968310365946075 13.141743299021654 5.7268388094697595 0.5063148531286241 0 0 0
8709 1 1 5.968310365946075 21.618089250627868 5.4604143312898765 0.05846521574139495 0 0 1
257 1 1 5.968310365946075 0.4680328184704966 6.377319735003798 0.761803315140775 0 0 0
176 1 1 5.968310365946075 1.5465007361021226 6.110029686568562 0.5364034867816083 0 0 0
191 1 1 5.968310365946075 6.488314310664236 5.974927206793574 0.03256580599091024 0 0 0
286 1 1 5.968310365946075 8.37403003294395 5.843034827611356 0.141414002518114 0 0 0
207 1 1 5.968310365946075 10.161853635632683 5.9082152721328445 0.7158358006066771 0 0 0
224 1 1 5.968310365946075 14.260005739429298 6.187126658722825 0.6316046134124744 0 0 0
321 1 1 5.968310365946075 18.580811146998137 6.354720409470005 0.3350453732532271 0 0 0
244 1 1 5.968310365946075 19.917117098389372 5.841626000909026 0.5492421134608021 0 0 0
8713 1 1 5.968310365946075 22.810230320691335 5.863884545601318 0.01914538695419873 0 0 1
277 1 1 5.968310365946075 5.698098323908248 6.603056261938179 0.52706831183242 0 0 0
1159 1 1 5.968310365946075 7.365328516985183 6.4775254788064025 0.5390312918051183 0 0 0
288 1 1 5.968310365946075 9.239905872858529 6.526474696023133 0.6054658253076397 0 0 0
289 1 1 5.968310365946075 10.15702583562152 6.923910883196703 0.030316813108929298 0 0 0
294 1 1 5.968310365946075 11.242971290152134 6.6704098325566825 0.2907014670383969 0 0 0
301 1 1 5.968310365946075 12.942457033527601 6.722278309721515 0.017728107533864945 0 0 0
227 1 1 5.968310365946075 15.158594164146548 6.875752345987148 0.5655422528989508 0 0 0
331 1 1 5.968310365946075 20.316450949042633 7.099206405943165 0.6952417394161734 0 0 0
329 1 1 5.968310365946075 21.663183138119727 6.9566062421867825 0.6776402811393141 0 0 0
259 1 1 5.968310365946075 1.0664299197662084 7.877199201785542 0.7066989148522234 0 0 0
263 1 1 5.968310365946075 2.0833003887457933 7.794470151312629 0.173248479663651 0 0 0
267 1 1 5.968310365946075 3.0742730493432804 7.237974735268261 0.15524828219664163 0 0 0
272 1 1 5.968310365946075 4.936884884810842 7.57080567638608 0.347584560648321 0 0 0
284 1 1 5.968310365946075 8.614370245315143 7.575461778680028 0.32394773592542786 0 0 0
312 1 1 5.968310365946075 14.528261168315233 7.9120759708647395 0.3601095345813337 0 0 0
315 1 1 5.968310365946075 15.644703029739992 7.911253479017405 0.05119205637249392 0 0 0
317 1 1 5.968310365946075 17.12560127986099 7.163749319929187 0.6184561471726188 0 0 0
327 1 1 5.968310365946075 19.117632838396794 7.6731286221253985 0.27621951428837244 0 0 0
255 1 1 5.968310365946075 22.461458425671434 7.758794817294253 0.4927886834563952 -1 0 0
356 1 1 5.968310365946075 2.9575703619148586 8.437742036100552 0.6073077983232374 0 0 0
8729 1 1 5.968310365946075 4.026123509269714 8.302489365893187 0.4506121111556614 0 0 1
368 1 1 5.968310365946075 5.791071864732579 8.436594477949368 0.3639709296745686 0 0 0
373 1 1 5.968310365946075 6.95239082030516 8.625083558765569 0.33983688097225007 0 0 0
379 1 1 5.968310365946075 8.072200684845319 8.554727708522151 0.3547830135604818 0 0 0
291 1 1 5.968310365946075 10.018346419252167 7.940077679880412 0.5739822194441034 0 0 0
300 1 1 5.968310365946075 12.376504628285277 8.249746601802181 0.5158780950156494 0 0 0
428 1 1 5.968310365946075 16.504193204560657 8.437538351014986 0.5384229184042301 0 0 0
323 1 1 5.968310365946075 17.68680622434282 8.30368579841709 0.26238975812083226 0 0 0
335 1 1 5.968310365946075 21.382488227316617 8.088585180365286 0.15317934590153834 0 0 0
337 1 1 5.968310365946075 0.4819518613101099 9.096645087729994 0.17657373660306253 0 0 0
264 1 1 5.968310365946075 1.9829928750121246 9.030445349386067 0.6797966221090225 0 0 0
394 1 1 5.968310365946075 9.720273813544342 9.184548772337862 0.7325464469020957 0 0 0
398 1 1 5.968310365946075 10.833656716704422 8.822190724519801 0.40702728514192266 0 0 0
1185 1 1 5.968310365946075 13.412720957003636 8.771660666898477 0.5808958113751566 0 0 0
440 1 1 5.968310365946075 18.334037807063456 9.194388429123338 0.12937766327008557 0 0 0
446 1 1 5.968310365946075 19.611524933887335 9.339257062357232 0.6652468971274031 0 0 0
451 1 1 5.968310365946075 20.704592733406713 9.19735771445552 0.39717426768880043 0 0 0
458 1 1 5.968310365946075 22.549957193904266 8.794402781407324 0.1755347289479107 0 0 0
359 1 1 5.968310365946075 2.6789629303263793 9.887195038024846 0.046799436969038204 0 0 0
355 1 1 5.968310365946075 3.7510322056113337 9.447770903371081 0.7158442859819936 0 0 0
381 1 1 5.968310365946075 5.924997162720867 9.61513295743535 0.14228553711321232 0 0 0
376 1 1 5.968310365946075 7.52281244862975 9.542491270678934 0.39580518395828196 0 0 0
385 1 1 5.968310365946075 8.643782375143928 9.65521721514324 0.6259249438122502 0 0 0
406 1 1 5.968310365946075 10.851406576008397 9.922140613770164 0.48914139340357854 0 0 0
416 1 1 5.968310365946075 15.155372330994753 9.866718143121595 0.3326006596705282 0 0 0
339 1 1 5.968310365946075 21.682037883667537 9.585061603977893 0.38434259245271896 -1 0 0
346 1 1 5.968310365946075 0.7286314437793306 10.106053658863013 0.535491578847009 0 0 0
8745 1 1 5.968310365946075 3.730620504090191 10.43753945918702 0.26059493418804297 0 0 1
370 1 1 5.968310365946075 4.838138798746243 10.302586809648334 0.3628355874034189 0 0 0
382 1 1 5.968310365946075 7.998540888969814 10.614745302493432 0.5202153618694015 0 0 0
495 1 1 5.968310365946075 9.614273042355581 10.683255285744364 0.18104626199012114 0 0 0
418 1 1 5.968310365946075 13.668450973327042 10.756683908948178 0.47595615630480825 0 0 0
435 1 1 5.968310365946075 16.66035886026461 10.512976112282178 23.068700836290063 0 0 -1
442 1 1 5.968310365946075 17.70785864206892 10.1740074000409 0.11847069908555595 0 0 0
448 1 1 5.968310365946075 19.006657233014195 10.258056493377184 0.28869685606550516 0 0 0
453 1 1 5.968310365946075 20.39921227054609 10.269051726631577 0.5718480919734616 0 0 0
459 1 1 5.968310365946075 22.17228421054413 10.672727742657166 0.09600574646580105 0 0 0
354 1 1 5.968310365946075 1.4347275984336079 10.858866553885678 0.11203796466595457 0 0 0
360 1 1 5.968310365946075 2.670970881326259 10.947511995290197 0.6175821096344992 0 0 0
371 1 1 5.968310365946075 5.834731183917363 11.409003204959516 0.4995282000223869 0 0 0
8757 1 1 5.968310365946075 6.848288675221079 11.298626722796293 0.030917223105437278 0 0 1
396 1 1 5.968310365946075 10.71155168738393 11.106096108011004 0.5130303082415636 0 0 0
1289 1 1 5.968310365946075 12.590430932719743 11.004114341115189 0.49797033691641834 0 0 0
423 1 1 5.968310365946075 15.614432024226963 10.897366999967216 0.432838188735034 0 0 0
438 1 1 5.968310365946075 17.651602728231115 11.349945011657898 0.6892241606096057 0 0 0
539 1 1 5.968310365946075 21.0494674567824 11.192392022649782 0.11085825818338693 0 0 0
463 1 1 5.968310365946075 0.04656099146420777 12.009140483562277 0.4022211396213877 0 0 0
471 1 1 5.968310365946075 1.1784795867812634 11.89025732682961 0.47099583939939055 0 0 0
497 1 1 5.968310365946075 9.515272867861926 11.895631268149758 0.07185640285753828 0 0 0
8787 1 1 5.968310365946075 12.300649362409578 12.179188611530215 23.02147843664204 0 0 0
8899 1 1 5.968310365946075 14.905891491368715 11.948764977857884 0.3796136384491908 0 0 1
431 1 1 5.968310365946075 16.467789990419814 11.727801093065803 23.039398920711058 0 0 -1
470 1 1 5.968310365946075 0.7766676802911562 12.924521320022759 0.030728717920967378 0 0 0
477 1 1 5.968310365946075 3.199634780846435 12.721522230546087 0.16905961231432845 0 0 0
479 1 1 5.968310365946075 4.313877185404509 12.443559083963754 0.08039666541799168 0 0 0
485 1 1 5.968310365946075 5.5000502918047065 12.620281169166713 0.25434009914304573 0 0 0
487 1 1 5.968310365946075 6.751571008167432 12.69557860137173 0.2160862978408281 0 0 0
488 1 1 5.968310365946075 8.185144438975733 12.270442138448795 0.18012423318955853 0 0 0
493 1 1 5.968310365946075 9.049313381761095 12.887984817189274 0.6142683342378207 0 0 0
500 1 1 5.968310365946075 10.15015002505312 12.56500846775066 0.6317175529977418 0 0 0
515 1 1 5.968310365946075 14.366494867389886 12.850228880596509 0.027183843800644793 0 0 0
443 1 1 5.968310365946075 18.23220927980576 12.298481378021656 0.10893024887050123 0 0 0
535 1 1 5.968310365946075 19.927401089450196 12.267735912383689 0.5440195539531845 0 0 0
8915 1 1 5.968310365946075 20.953765092054937 12.741621636586153 0.3587702470629297 0 0 1
543 1 1 5.968310365946075 22.00884713869261 13.04527243713575 0.2596033408785755 0 0 0
8845 1 1 5.968310365946075 0.07973455269917476 13.743901007726263 0.43811792565225377 0 0 1
8861 1 1 5.968310365946075 4.825522224337468 13.56462977890544 0.1883481090831246 0 0 1
575 1 1 5.968310365946075 8.183602645769335 13.57148301186877 0.565594475300755 0 0 0
505 1 1 5.968310365946075 11.35259767201826 13.03609496073594 0.6482196571773269 0 0 0
507 1 1 5.968310365946075 13.224951156128421 12.984074035434912 0.06640248545665214 0 0 0
529 1 1 5.968310365946075 16.323277180887168 13.121093694931412 0.3692186630209582 0 0 0
534 1 1 5.968310365946075 17.86080245974193 13.271696959559856 0.523559230727521 0 0 0
9019 1 1 5.968310365946075 3.14258891464483 14.183996600355533 0.13458031614857832 0 0 1
490 1 1 5.968310365946075 7.165278515054945 14.0364356295404 0.6427261327570366 0 0 0
588 1 1 5.968310365946075 10.989170370882936 14.153184478410441 0.6233226723696661 0 0 0
592 1 1 5.968310365946075 12.092400984307048 14.03281763238064 0.6204005189636684 0 0 0
611 1 1 5.968310365946075 17.02653002883279 14.05700266637317 0.172974668125018 0 0 0
533 1 1 5.968310365946075 18.151740505518216 14.267606180589619 0.13664369723097336 0 0 0
621 1 1 5.968310365946075 20.099202176295158 14.451087248315375 0.4505068182465133 0 0 0
548 1 1 5.968310365946075 0.45162524512853053 15.090016411142624 0.6345733062745331 0 0 0
553 1 1 5.968310365946075 1.4704650936345849 14.922066553314467 0.02827148959372167 0 0 0
556 1 1 5.968310365946075 2.2210279685263483 14.436823131619853 0.6808648745518916 0 0 0
561 1 1 5.968310365946075 4.063820123974213 14.72430345890252 0.25269997541002864 0 0 0
568 1 1 5.968310365946075 5.100628938621035 14.525020199277717 0.6264835991411765 0 0 0
578 1 1 5.968310365946075 7.8978151474903635 14.995905580974384 0.6008853276354379 0 0 0
584 1 1 5.968310365946075 10.055752949231993 14.772821866619607 0.36760057947538394 0 0 0
589 1 1 5.968310365946075 11.554855701241745 15.091370742972044 0.42359122449567976 0 0 0
601 1 1 5.968310365946075 13.75106933519551 14.849980234360112 0.4653645134984081 0 0 0
603 1 1 5.968310365946075 14.863757809808881 14.757565485937498 0.33419312589694833 0 0 0
610 1 1 5.968310365946075 17.372569034976586 15.117829460280994 0.7732838485160403 0 0 0
617 1 1 5.968310365946075 19.087796320754894 14.850276109242607 0.040317226171029424 0 0 0
627 1 1 5.968310365946075 21.25697083131509 14.977145518807971 0.6471312867688367 0 0 0
558 1 1 5.968310365946075 2.144198498461869 15.775205176708539 0.7637662412168572 0 0 0
581 1 1 5.968310365946075 9.14861888127922 15.40825891310496 0.2466163297976431 0 0 0
618 1 1 5.968310365946075 19.85553225315366 15.631882235826401 0.498753833487632 0 0 0
630 1 1 5.968310365946075 22.38223955944722 15.245356576015002 0.41438828562357555 0 0 0
635 1 1 5.968310365946075 0.03852052061776822 16.09749740625106 0.5123098022780856 0 0 0
642 1 1 5.968310365946075 1.6205711689412423 16.55737233352802 0.19250181816725537 0 0 0
728 1 1 5.968310365946075 2.76880998283133 16.4836939621493 0.13266555229737148 0 0 0
648 1 1 5.968310365946075 4.01361384070138 16.14195951315083 0.14264129973396286 0 0 0
9027 1 1 5.968310365946075 5.206631773046857 16.556746465061156 0.08816653546650133 0 0 1
9031 1 1 5.968310365946075 6.256313695103264 16.097352971709284 0.21153813894337156 0 0 1
659 1 1 5.968310365946075 7.311543594738943 16.433386685932263 0.21992440608005387 0 0 0
660 1 1 5.968310365946075 8.423134677930847 16.32361160497443 0.3943971648188931 0 0 0
8967 1 1 5.968310365946075 10.27186593144691 15.859481717580406 0.1762583763319588 0 0 1
671 1 1 5.968310365946075 11.166253609758162 16.41464283425345 23.099711888841217 0 0 -1
594 1 1 5.968310365946075 12.231709163649382 15.996946479823064 0.369879789321741 0 0 0
676 1 1 5.968310365946075 13.361180406770528 16.0800959397455 0.6298213659599862 0 0 0
602 1 1 5.968310365946075 14.366346905800063 16.005181553564906 0.016402322638934166 0 0 0
605 1 1 5.968310365946075 15.43396011167776 15.921849465398834 0.3618157689317828 0 0 0
9079 1 1 5.968310365946075 18.850468524466855 16.168568911425012 23.11096812557006 0 0 0
625 1 1 5.968310365946075 21.211129556420705 15.998396293885945 0.0374764209909483 0 0 0
653 1 1 5.968310365946075 4.20386821581208 17.265839152499566 0.3432865770102361 0 0 0
667 1 1 5.968310365946075 9.404940751611013 16.825835697382185 0.4734383202764878 0 0 0
678 1 1 5.968310365946075 12.388588261145946 17.105442945747722 0.40483982173020405 0 0 0
1567 1 1 5.968310365946075 13.929523960021251 17.016640530376687 0.46565005600514325 0 0 0
699 1 1 5.968310365946075 17.118118831001954 16.800983642577485 0.31170412496229205 0 0 0
700 1 1 5.968310365946075 18.329087170018546 17.036891235407765 0.5907912764304424 0 0 0
708 1 1 5.968310365946075 21.252087595299102 17.153879288522564 0.19011332679891352 0 0 0
631 1 1 5.968310365946075 22.285667398324016 16.75195231366787 0.28234367597443827 -1 0 0
719 1 1 5.968310365946075 1.2795354074106347 17.562691264964073 0.5989145422835396 0 0 0
723 1 1 5.968310365946075 2.283344843207866 17.52175614376335 0.05398314977139531 0 0 0
9033 1 1 5.968310365946075 5.279266073161249 17.780321616038506 0.21619081356543726 0 0 1
9035 1 1 5.968310365946075 6.6842980529831575 17.482422126070436 0.12380271568076676 0 0 1
665 1 1 5.968310365946075 7.842519867585804 17.42379373079761 0.03487267779854868 0 0 0
669 1 1 5.968310365946075 8.687541457223052 17.94958976938488 0.613016710807758 0 0 0
696 1 1 5.968310365946075 16.127717840779216 17.50784117087742 0.6783348603399006 0 0 0
697 1 1 5.968310365946075 17.56714943088524 17.88690809696088 0.37876916286256507 0 0 0
710 1 1 5.968310365946075 20.139374701862494 17.770705416832904 0.2857834507962214 0 0 0
795 1 1 5.968310365946075 22.542272973172526 17.8919213623377 0.15205271228288017 0 0 0
716 1 1 5.968310365946075 0.514895080924727 18.185038761059513 0.08311066353689212 0 0 0
720 1 1 5.968310365946075 1.630557789438393 18.63921967249332 0.705906091611811 0 0 0
9109 1 1 5.968310365946075 3.092848130080482 18.73330692350374 0.28331593393098997 0 0 1
731 1 1 5.968310365946075 4.191565130077597 18.457588093332554 0.33480830821785484 0 0 0
662 1 1 5.968310365946075 6.185620742953591 18.49265746419198 0.3724714909327119 0 0 0
759 1 1 5.968310365946075 11.889183601535116 18.333937747678032 0.30153209112521895 0 0 0
772 1 1 5.968310365946075 15.019314545290687 18.834981562890345 0.21372431936296624 0 0 0
771 1 1 5.968310365946075 16.08633868214485 18.489522609692788 0.20930633203277063 0 0 0
784 1 1 5.968310365946075 18.787334822976838 18.069571108926304 0.1992701053135738 0 0 0
786 1 1 5.968310365946075 19.486153370542286 18.79898538100271 0.6158352199704963 0 0 0
709 1 1 5.968310365946075 20.864638555152535 18.655083656772582 23.07557552192896 0 0 -1
745 1 1 5.968310365946075 7.016852596542188 19.344424172917453 0.3837323276481563 0 0 0
751 1 1 5.968310365946075 9.564288373426027 18.885229819079512 0.1736076203132903 0 0 0
762 1 1 5.968310365946075 11.180945367088388 19.135383562854766 0.6632080655042133 0 0 0
769 1 1 5.968310365946075 13.850546815931027 18.844430301282223 0.5054772439176275 0 0 0
776 1 1 5.968310365946075 17.1239336591579 18.848191273967153 0.5762877863966428 0 0 0
780 1 1 5.968310365946075 18.397768758274353 18.99286070039728 0.8174051397254156 0 0 0
794 1 1 5.968310365946075 21.845080174869704 18.804339317493184 0.6437588400074873 0 0 0
724 1 1 5.968310365946075 1.74976819416442 19.832935745964157 0.4421245787047722 0 0 0
807 1 1 5.968310365946075 2.919801624619088 20.064754823638406 0.18359031580341126 0 0 0
737 1 1 5.968310365946075 4.707594407284535 19.62204109113965 0.3056018836537711 0 0 0
9199 1 1 5.968310365946075 5.719633729404497 20.240321715730623 0.09349802181779894 0 0 1
750 1 1 5.968310365946075 8.441466296250969 19.91707619779218 0.5792649850532159 0 0 0
843 1 1 5.968310365946075 12.042574433626317 19.552572620637402 0.01451069761792368 0 0 0
778 1 1 5.968310365946075 16.524989681445284 20.057400087238737 0.3748356383877573 0 0 0
775 1 1 5.968310365946075 17.634130319024397 19.831299012485665 0.003516093730191645 0 0 0
783 1 1 5.968310365946075 20.07590891208113 19.526330227253812 23.07324250686467 0 0 -1
798 1 1 5.968310365946075 22.61840200830307 19.72905344699455 0.5636919043339946 0 0 0
799 1 1 5.968310365946075 0.3634133232603526 20.358119025743107 0.30089992975673396 0 0 0
828 1 1 5.968310365946075 7.5756822529197185 20.879927862313668 0.6927726069513901 0 0 0
753 1 1 5.968310365946075 9.558128740840498 20.347928481894744 0.2125793039674225 0 0 0
863 1 1 5.968310365946075 17.43262807798371 20.852315884529414 0.4021877371925983 0 0 0
814 1 1 5.968310365946075 3.498110142517708 20.823718630490337 0.617923936794418 0 0 0
815 1 1 5.968310365946075 4.687179083453353 20.992948161583847 0.5759289531007861 0 0 0
825 1 1 5.968310365946075 5.998899911923509 21.24894257826188 0.4531685730260835 0 0 0
837 1 1 5.968310365946075 9.61886410792058 21.54418044082427 0.21360501029818685 0 0 0
839 1 1 5.968310365946075 11.66648382914126 21.082656791553745 0.2874654862022275 0 0 0
845 1 1 5.968310365946075 12.8515444084034 21.292057246850295 0.26454428072155217 0 0 0
857 1 1 5.968310365946075 14.840392468356054 21.256695409220647 0.6090092316078218 0 0 0
859 1 1 5.968310365946075 16.165473764690585 21.203811792346464 0.28441535996769657 0 0 0
868 1 1 5.968310365946075 18.580840204044634 20.99249454134924 0.4885494796448788 0 0 0
9251 1 1 5.968310365946075 20.583776579162272 21.405290299225605 0.27180485842394847 0 0 1
875 1 1 5.968310365946075 21.614420696403606 20.961663712103118 0.11274915178364284 0 0 0
9261 1 1 5.968310365946075 22.911073402001524 21.61794486114696 0.015555148741448241 0 0 1
5 1 1 5.968310365946075 1.8017126840623108 21.898656415911457 0.2778023880768637 0 -1 0
813 1 1 5.968310365946075 2.8920586021384063 21.809983005994894 0.4847221544632266 0 0 0
822 1 1 5.968310365946075 6.032866594556059 22.290586069072962 0.04483283987811061 0 0 0
824 1 1 5.968310365946075 6.951724040309484 21.81433578358986 0.6082179984572318 0 0 0
833 1 1 5.968310365946075 8.084964735036596 21.818082029038386 0.1905778345360469 0 0 0
8429 1 1 5.968310365946075 13.151694016226616 22.383441969105576 23.07814785647302 0 -1 0
861 1 1 5.968310365946075 15.864144740066711 22.257311877387938 0.6198173343440231 0 0 0
869 1 1 5.968310365946075 17.6038469285743 21.945663952096755 0.17673296400293023 0 0 0
874 1 1 5.968310365946075 18.647232365697977 22.302214050892513 0.29161832665470927 0 0 0
9 1 1 5.968310365946075 2.9326762410664333 22.90288740375439 0.03333800235127895 0 -1 0
899 1 1 5.968310365946075 4.881408507230302 22.387429525546484 0.5267381677649506 0 -1 0
29 1 1 5.968310365946075 8.0885141713767 22.955290344205576 0.47757544564336046 0 -1 0
33 1 1 5.968310365946075 9.248541702436558 22.637264760310106 0.09259810798096939 0 -1 0
37 1 1 5.968310365946075 10.275947250319001 22.881307256453002 0.12836426755750474 0 -1 0
54 1 1 5.968310365946075 13.902191194935506 23.09079732544309 0.5036258786091417 0 -1 0
53 1 1 5.968310365946075 14.76746708316086 22.375302507276526 0.2777022302569893 0 -1 0
73 1 1 5.968310365946075 19.905996280405265 22.516330213582652 0.6275707126846586 0 -1 0
78 1 1 5.968310365946075 21.040053423894143 22.50464872239404 0.3566111960684047 0 -1 0
81 1 1 5.968310365946075 22.899660835871853 22.65791585676096 0.5421121023371328 0 -1 0
897 1 1 5.968310365946075 2.937923680530321 0.6860221924859817 1.419757929717026 0 0 0
16 1 1 5.968310365946075 5.074157574878043 0.5228750399408516 0.7370945084236071 0 0 0
36 1 1 5.968310365946075 8.88932630967548 0.6004627329168833 0.8690122539362666 0 0 0
38 1 1 5.968310365946075 10.092147870637914 0.4560609018665237 1.3877173651882164 0 0 0
42 1 1 5.968310365946075 12.186122512995011 0.19811452430643114 1.281871653002121 0 0 0
63 1 1 5.968310365946075 16.226510986737296 0.4802155988445823 1.0906761320991571 0 0 0
75 1 1 5.968310365946075 19.737379494541443 0.5131780782947388 0.8174400206702465 0 0 0
80 1 1 5.968310365946075 20.864358888064984 0.3817517852339857 0.865450498606695 0 0 0
8 1 1 5.968310365946075 1.397193687416586 1.111935277450505 1.0341512039144345 0 0 0
28 1 1 5.968310365946075 6.129906140742142 1.1018810525734366 0.9066060675411042 0 0 0
30 1 1 5.968310365946075 7.129306761254732 0.8763906440082004 1.3869109567941509 0 0 0
50 1 1 5.968310365946075 13.368952922431475 0.7988226415716703 1.0280843112924964 0 0 0
142 1 1 5.968310365946075 15.18485294614145 1.2490560690435966 1.1602588438726584 0 0 0
67 1 1 5.968310365946075 17.191886107003747 1.158670637246686 0.9110133822475225 0 0 0
72 1 1 5.968310365946075 18.211217752421543 1.3725666713880076 1.2576614265383794 0 0 0
98 1 1 5.968310365946075 3.6760915982916464 1.8311845988008768 0.8206921752975969 0 0 0
20 1 1 5.968310365946075 4.760301282129901 1.9859784392352586 0.9700197139899025 0 0 0
32 1 1 5.968310365946075 6.860354885252779 2.1009998100005856 1.3936474102693066 0 0 0
118 1 1 5.968310365946075 8.854976900181706 1.8752058844252255 1.3472884515961128 0 0 0
40 1 1 5.968310365946075 9.926603250720746 1.7171029494737695 0.7195423659022538 0 0 0
127 1 1 5.968310365946075 11.405026426153814 2.102280201691349 0.8230491453212994 0 0 0
51 1 1 5.968310365946075 13.4344391351455 2.0739645391483292 0.9054795945847205 0 0 0
79 1 1 5.968310365946075 19.379944345277277 1.6518429880409502 0.9087329845102011 0 0 0
162 1 1 5.968310365946075 20.47376464678214 1.6885031773049284 0.8767187235257504 0 0 0
166 1 1 5.968310365946075 21.97702834189458 1.9151713192918187 1.314299258906835 0 0 0
90 1 1 5.968310365946075 0.43841476884382946 2.539522014199997 1.0976097390014434 0 0 0
106 1 1 5.968310365946075 5.80145376294432 2.0795378540680693 1.3386054867576673 0 0 0
117 1 1 5.968310365946075 7.951741390262569 2.5482516793166963 0.9076636729005502 0 0 0
120 1 1 5.968310365946075 9.374829560025079 2.7785110022252995 1.1056774798991202 0 0 0
122 1 1 5.968310365946075 10.472221279530261 2.8321743340851766 0.7100516855292422 0 0 0
145 1 1 5.968310365946075 15.848983133831569 2.7114578445083457 0.8645127613345952 0 0 0
153 1 1 5.968310365946075 17.581531941761504 2.266024315624525 0.9844588264228297 0 0 0
164 1 1 5.968310365946075 20.91235500489884 2.61107418776918 1.1488557204268264 0 0 0
100 1 1 5.968310365946075 2.4837721772573165 3.2246997914932862 1.0631873265969154 0 0 0
108 1 1 5.968310365946075 4.533094365068441 3.3061591020412675 0.7701234810503308 0 0 0
112 1 1 5.968310365946075 5.673256186144061 3.3237804874438424 0.9537953533069409 0 0 0
115 1 1 5.968310365946075 8.55541591167002 3.5125491327122984 0.9640726043446427 0 0 0
126 1 1 5.968310365946075 11.4494510602733 3.0540044548400536 1.4627848761074709 0 0 0
130 1 1 5.968310365946075 13.200005476209755 3.207313515584126 0.9384417512590237 0 0 0
138 1 1 5.968310365946075 14.208226497706756 2.89590032074678 1.2286295951462032 0 0 0
155 1 1 5.968310365946075 17.91221034569916 3.3406443099321947 0.8701039365102371 0 0 0
159 1 1 5.968310365946075 19.106395867997524 3.2663637515406054 0.9528082109180873 0 0 0