LAMMPS (19 Nov 2024 - Development - patch_19Nov2024-564-gf96768effb-modified)
KOKKOS mode with Kokkos version 4.5.1 is enabled (src/KOKKOS/kokkos.cpp:72)
  using 1 OpenMP thread(s) per MPI task
package kokkos
package kokkos comm no
###
# Box and units  (use LJ units and periodic boundaries)
###

units           lj
atom_style      ellipsoid
dimension	3
boundary	p p p

lattice		sc 0.75
Lattice spacing in x,y,z = 1.1006424 1.1006424 1.1006424
region		box block 0 21 0 21 0 21
create_box	1 box
Created orthogonal box = (0 0 0) to (23.113491 23.113491 23.113491)
  1 by 1 by 1 MPI processor grid
create_atoms	1 box
Created 9261 atoms
  using lattice units in orthogonal box = (0 0 0) to (23.113491 23.113491 23.113491)
  create_atoms CPU = 0.073 seconds

group           all type 1
9261 atoms in group all
set             type 1 mass 1.0
Setting atom values ...
  9261 settings made for mass
set             type 1 shape 1.0 0.4 0.8
Setting atom values ...
  9261 settings made for shape
set             type 1 quat/random 29898
Setting atom values ...
  9261 settings made for quat/random

velocity 	all create 0.1 87287 loop geom

neighbor        0.3 bin
neigh_modify    delay 0 every 100 check yes

###################################################################
# Pair interaction between non-bonded atoms
#
#  Lennard-Jones 12-6 potential with cutoff:
#  potential E=4epsilon[ (sigma/r)^12 - (sigma/r)^6]  for r<r_cut
#
#  1.12246152962189 = 2^(1/6) is the minimum of the potential

pair_style      lj/cut 1.12246152962189

#
#  pair_coeff for lj/cut, specify 4:
#    * atom type interacting with
#    * atom type
#    * epsilon (energy units)
#    * sigma (distance units)
#

pair_coeff      1 1 1.0 1.1

#
#  pair_modify shift yes adds a constant to the potential such
#  that E(r_cut)=0. Forces remains unchanged.
#

pair_modify     shift yes

###################################################
reset_atoms 	id sort yes
Resetting atom IDs ...
Generated 0 of 0 mixed pair_coeff terms from geometric mixing rule
Neighbor list info ...
  update: every = 100 steps, delay = 0 steps, check = yes
  max neighbors/atom: 2000, page size: 100000
  master list distance cutoff = 1.4224615
  ghost atom cutoff = 1.4224615
  binsize = 0.71123076, bins = 33 33 33
  1 neighbor lists, perpetual/occasional/extra = 1 0 0
  (1) pair lj/cut/kk, perpetual
      attributes: half, newton on, kokkos_device
      pair build: half/bin/newton/kk/device
      stencil: half/bin/3d
      bin: kk/device

comm_modify cutoff 6
#comm_style tiled
#balance 1.2 rcb

###
# Set up fixes
###

fix 1 all   nve   ###NVE ensemble
#fix 2 all   langevin   1.0 1.0   2.0   424242   ###Langevin integrator Tstart Tstop 1/friction rndseed

compute ekin all ke
compute epot all pe
variable ekin equal c_ekin
variable epot equal c_epot
variable etot equal c_ekin+c_epot

fix 3 all print 5000 "$(step)  ekin = ${ekin} | epot = ${epot} | etot = ${etot}" screen yes

compute q all property/atom quatw quati quatj quatk
compute diameter all property/atom shapex shapey shapez
dump 1 all custom 5000 dump.polymer id type x y z c_q[1] c_q[2] c_q[3] c_q[4] c_diameter[1] c_diameter[2] c_diameter[3]
dump_modify 1 colname c_q[1] quatw colname c_q[2] quati colname c_q[3] quatj colname c_q[4] quatk

###################################################

timestep 0.0001 #0.012

run 100000
Generated 0 of 0 mixed pair_coeff terms from geometric mixing rule
0  ekin = 1389.00000000001 | epot = 10856.1296801357 | etot = 12245.1296801357
Per MPI rank memory allocation (min/avg/max) = 13.12 | 13.12 | 13.12 Mbytes
   Step          Temp          E_pair         E_mol          TotEng         Press     
         0   0.1            1.1722416      0              1.3222254      17.886598    
5000  ekin = 7576.81878394673 | epot = 4668.44203584178 | etot = 12245.2608197885
10000  ekin = 7974.78097823942 | epot = 4270.88904709005 | etot = 12245.6700253295
15000  ekin = 8059.60759530956 | epot = 4186.05190563439 | etot = 12245.659500944
20000  ekin = 8027.5966599522 | epot = 4218.20316899633 | etot = 12245.7998289485
25000  ekin = 8038.43462050362 | epot = 4207.61469634341 | etot = 12246.049316847
30000  ekin = 8119.84462443044 | epot = 4126.25115683116 | etot = 12246.0957812616
35000  ekin = 8084.40074370951 | epot = 4162.09566786258 | etot = 12246.4964115721
40000  ekin = 8034.10565384657 | epot = 4212.52140991556 | etot = 12246.6270637621
45000  ekin = 8069.61744017455 | epot = 4177.00803106253 | etot = 12246.6254712371
50000  ekin = 8127.85115556208 | epot = 4118.83551773185 | etot = 12246.6866732939
55000  ekin = 8081.5267140913 | epot = 4164.86752427997 | etot = 12246.3942383713
60000  ekin = 8117.64394777733 | epot = 4128.75359752665 | etot = 12246.397545304
65000  ekin = 8126.51706002958 | epot = 4119.80699225572 | etot = 12246.3240522853
70000  ekin = 8104.72057319027 | epot = 4141.93801395515 | etot = 12246.6585871454
75000  ekin = 8132.97747337293 | epot = 4113.76059026379 | etot = 12246.7380636367
80000  ekin = 8139.66278875101 | epot = 4107.16517603519 | etot = 12246.8279647862
85000  ekin = 8104.36101394718 | epot = 4142.92889306911 | etot = 12247.2899070163
90000  ekin = 8154.37886978037 | epot = 4093.19648023691 | etot = 12247.5753500173
95000  ekin = 8085.14652240112 | epot = 4162.22186600244 | etot = 12247.3683884036
100000  ekin = 7979.95955668812 | epot = 4267.33164944865 | etot = 12247.2912061368
    100000   0.57451113     0.46078519     0              1.3224588      6.3406683    
Loop time of 1539.76 on 1 procs for 100000 steps with 9261 atoms

Performance: 561.128 tau/day, 64.945 timesteps/s, 601.459 katom-step/s
99.9% CPU use with 1 MPI tasks x 1 OpenMP threads

MPI task timing breakdown:
Section |  min time  |  avg time  |  max time  |%varavg| %total
---------------------------------------------------------------
Pair    | 470.21     | 470.21     | 470.21     |   0.0 | 30.54
Neigh   | 7.735      | 7.735      | 7.735      |   0.0 |  0.50
Comm    | 691.31     | 691.31     | 691.31     |   0.0 | 44.90
Output  | 14.492     | 14.492     | 14.492     |   0.0 |  0.94
Modify  | 269.25     | 269.25     | 269.25     |   0.0 | 17.49
Other   |            | 86.77      |            |       |  5.64

Nlocal:           9261 ave        9261 max        9261 min
Histogram: 1 0 0 0 0 0 0 0 0 0
Nghost:          23200 ave       23200 max       23200 min
Histogram: 1 0 0 0 0 0 0 0 0 0
Neighs:          47473 ave       47473 max       47473 min
Histogram: 1 0 0 0 0 0 0 0 0 0

Total # of neighbors = 47473
Ave neighs/atom = 5.1261203
Neighbor list builds = 199
Dangerous builds = 0

write_data data_out.* nocoeff
System init for write_data ...
Generated 0 of 0 mixed pair_coeff terms from geometric mixing rule
Total wall time: 0:25:44
