LAMMPS data file via write_data, version 2 Aug 2023, timestep = 20000, units = lj

3375 atoms
1 atom types
3375 ellipsoids

0 16.509636244473135 xlo xhi
0 16.509636244473135 ylo yhi
0 16.509636244473135 zlo zhi

Atoms # ellipsoid/kk

2 1 1 0.6366197723675814 1.0284000385717362 0.025770470413987875 0.40147493047793215 0 0 0
18 1 1 0.6366197723675814 2.060895288601877 0.4772841479103795 0.4432276866799787 0 0 0
4 1 1 0.6366197723675814 4.065053525932399 0.613831693222028 0.2989289635117196 0 0 0
5 1 1 0.6366197723675814 5.071873083209588 0.17255446063936472 0.09814913303308549 0 0 0
7 1 1 0.6366197723675814 7.304227756486304 0.05815023996274766 0.4424431858121061 0 0 0
233 1 1 0.6366197723675814 8.392233906650043 0.41021886755093045 0.27926714844424144 0 0 0
10 1 1 0.6366197723675814 10.500788363919526 0.15273172652492426 0.17547924409251844 0 0 0
27 1 1 0.6366197723675814 12.409004777335362 0.627980445530576 0.11785424562591645 0 0 0
13 1 1 0.6366197723675814 13.474504438408756 0.6136497793386756 0.17293329366039742 0 0 0
15 1 1 0.6366197723675814 15.407769523703859 0.5050552392100609 0.492540063495056 0 0 0
17 1 1 0.6366197723675814 0.9985754299196625 1.2072024636513676 0.020113809611797758 0 0 0
19 1 1 0.6366197723675814 3.1990067799202753 1.258758493328101 0.06676946566533633 0 0 0
20 1 1 0.6366197723675814 4.933169146748105 1.266375950769758 0.10809566394375841 0 0 0
21 1 1 0.6366197723675814 5.973782917872343 0.882436777743859 0.2075676837190029 0 0 0
249 1 1 0.6366197723675814 9.343641453297822 0.9643300886107988 0.40614796783384566 0 0 0
26 1 1 0.6366197723675814 11.388426258482275 0.9808688228235501 0.4401352962369496 0 0 0
16 1 1 0.6366197723675814 16.497731010333776 0.9038262235106876 0.29088450593042564 -1 0 0
33 1 1 0.6366197723675814 2.1273654243424365 1.5539395146920236 0.5955499961711137 0 0 0
261 1 1 0.6366197723675814 5.90979352851915 1.911355563664511 0.574681625265946 0 0 0
247 1 1 0.6366197723675814 7.161643546615954 1.5827421608768786 0.5755564432153267 0 0 0
42 1 1 0.6366197723675814 12.1881850857917 1.727544226890687 0.07102592330366259 0 0 0
28 1 1 0.6366197723675814 13.354221996972585 1.6074668250250177 0.7228859914333509 0 0 0
44 1 1 0.6366197723675814 14.464416621678536 1.7953299437203625 0.32356258543619654 0 0 0
32 1 1 0.6366197723675814 1.2167095895976412 2.4135194831444626 0.5292161286872605 0 0 0
34 1 1 0.6366197723675814 2.8738562492753164 2.419391669573686 0.10964779934869133 0 0 0
40 1 1 0.6366197723675814 9.95507192535722 2.4426771891824917 0.48262869894494786 0 0 0
268 1 1 0.6366197723675814 13.50990906615243 2.892465029852506 0.5914267309490366 0 0 0
45 1 1 0.6366197723675814 15.320682141656924 2.5313648113971445 0.4100369075257048 0 0 0
47 1 1 0.6366197723675814 1.5020491378093443 3.6249395671065145 0.6847346209345703 0 0 0
49 1 1 0.6366197723675814 3.4106659616655564 3.38860244517595 0.47197559230748587 0 0 0
50 1 1 0.6366197723675814 4.572404720106392 3.1291868407803634 0.1763189244015927 0 0 0
51 1 1 0.6366197723675814 5.779479209781611 3.1025206110078885 0.3786901182319448 0 0 0
53 1 1 0.6366197723675814 7.785121645067761 3.416908515736168 0.26757083436653517 0 0 0
279 1 1 0.6366197723675814 8.760598384062703 2.958040561930147 0.5384860336181193 0 0 0
57 1 1 0.6366197723675814 12.0022022329842 2.826301237341218 0.2989555626285173 0 0 0
290 1 1 0.6366197723675814 4.3014262064336455 4.167920157794989 0.7164906758223998 0 0 0
55 1 1 0.6366197723675814 9.7294468875136 3.630304410022552 0.35791873435146065 0 0 0
71 1 1 0.6366197723675814 10.605835321011352 4.246601202477119 0.5788149089558535 0 0 0
72 1 1 0.6366197723675814 11.677088590706983 4.199852758386555 0.3192031924062602 0 0 0
58 1 1 0.6366197723675814 12.91397010280367 3.774723537375382 0.14858623326820097 0 0 0
74 1 1 0.6366197723675814 14.200321963921644 3.926362523862488 0.21467919715646278 0 0 0
289 1 1 0.6366197723675814 3.424954811770902 4.886453305822522 0.5974644195969735 0 0 0
291 1 1 0.6366197723675814 5.0940442172530735 4.988727980357169 0.6728867905325265 0 0 0
69 1 1 0.6366197723675814 8.426505390970723 4.601458932322597 0.2038671147124249 0 0 0
73 1 1 0.6366197723675814 13.329227061803634 4.798236504820494 0.04773191588875579 0 0 0
75 1 1 0.6366197723675814 15.182761655470722 4.492061663735972 0.23955642918205267 0 0 0
76 1 1 0.6366197723675814 16.359152594293146 4.937220367233926 0.0005408182522475001 -1 0 0
77 1 1 0.6366197723675814 1.1751762936517351 5.576874647569212 0.19996776417749795 0 0 0
82 1 1 0.6366197723675814 7.147644072872342 5.299648201843878 0.25151101341425736 0 0 0
84 1 1 0.6366197723675814 9.021723324454092 5.558083580970718 0.13710531429730155 0 0 0
86 1 1 0.6366197723675814 11.108792895351824 5.227113729860088 0.6737206411894967 0 0 0
89 1 1 0.6366197723675814 14.43385634165129 5.345878224406371 0.15093938787619748 0 0 0
303 1 1 0.6366197723675814 2.1725162561825697 6.019675263286047 0.5313875694843049 0 0 0
79 1 1 0.6366197723675814 3.37804849729461 6.064856078552689 0.5396874759156249 0 0 0
305 1 1 0.6366197723675814 4.499849505000721 5.900962464138726 0.7659629523334613 0 0 0
308 1 1 0.6366197723675814 8.054525458509332 6.129893169021396 0.36528467627326167 0 0 0
101 1 1 0.6366197723675814 10.715405520821648 6.274968598803681 0.44997976334865963 0 0 0
102 1 1 0.6366197723675814 11.77893818854675 6.128682613421084 0.17308172192833757 0 0 0
313 1 1 0.6366197723675814 13.186113592595172 5.768077498239976 0.6648135240582239 0 0 0
105 1 1 0.6366197723675814 15.717625030168657 6.36110193010972 0.34551776673017776 0 0 0
92 1 1 0.6366197723675814 1.2624768788688732 6.856546245660184 0.1720616499012331 0 0 0
94 1 1 0.6366197723675814 3.1363332665485397 7.121540198843066 0.6811426063509792 0 0 0
95 1 1 0.6366197723675814 4.262402384364292 6.898919035005862 0.5182492687383486 0 0 0
98 1 1 0.6366197723675814 7.213157448900548 6.876841437930014 0.379272582853514 0 0 0
99 1 1 0.6366197723675814 8.337037622064555 7.1659545815607295 0.33955214007664214 0 0 0
100 1 1 0.6366197723675814 9.70402991425413 6.72409428788861 0.394480587989703 0 0 0
103 1 1 0.6366197723675814 12.822828348423716 6.762978818482559 0.20734075541979036 0 0 0
333 1 1 0.6366197723675814 2.163578317105459 7.728690249283385 0.5501149748799077 0 0 0
111 1 1 0.6366197723675814 5.094706084608007 7.614900773678137 0.5050252738302735 0 0 0
117 1 1 0.6366197723675814 11.51465875494136 7.198468088522544 0.047539512562402665 0 0 0
119 1 1 0.6366197723675814 13.767270728719762 7.41604282073734 0.17607654213776266 0 0 0
347 1 1 0.6366197723675814 1.0871612351580238 8.04263060660064 0.5295656903894757 0 0 0
109 1 1 0.6366197723675814 3.2147359831784823 8.120019188796052 0.29987478926038635 0 0 0
125 1 1 0.6366197723675814 4.341392430619238 8.611125944369705 0.23279028364255672 0 0 0
129 1 1 0.6366197723675814 9.181504997585822 8.585481972097583 0.20961232073600697 0 0 0
116 1 1 0.6366197723675814 10.791500945388929 8.391180588464756 0.02636318949374312 0 0 0
118 1 1 0.6366197723675814 12.74594367928971 7.954643280489937 0.059933790428311824 0 0 0
135 1 1 0.6366197723675814 15.462874731088194 8.53969865510846 0.34723891357047126 0 0 0
121 1 1 0.6366197723675814 0.29374323721422585 8.71042799921199 0.09406159463036157 0 0 0
362 1 1 0.6366197723675814 1.0819859808613799 9.266374460211894 0.6341415993348194 0 0 0
123 1 1 0.6366197723675814 2.3761952092395315 8.952213986778206 0.27171397091594074 0 0 0
124 1 1 0.6366197723675814 3.4436649242192194 9.307567608822916 0.17483608517470392 0 0 0
144 1 1 0.6366197723675814 8.31696398552869 9.195399174314629 0.3977383190503756 0 0 0
355 1 1 0.6366197723675814 10.142068787119403 9.134039468231196 0.6643073251325117 0 0 0
132 1 1 0.6366197723675814 11.861489343881123 8.59667548279855 0.0058188470242432145 0 0 0
133 1 1 0.6366197723675814 13.528497524692314 8.986119561718011 0.14505805231355187 0 0 0
142 1 1 0.6366197723675814 6.301852476901519 9.65469164133737 0.6052680836991869 0 0 0
145 1 1 0.6366197723675814 9.338454784654676 9.70468107621121 0.24793094939825344 0 0 0
357 1 1 0.6366197723675814 11.613446428085373 9.469130702452722 0.693186526384447 0 0 0
136 1 1 0.6366197723675814 15.764378444754245 9.57416834524315 0.0793827327951279 -1 0 0
377 1 1 0.6366197723675814 0.9536791765387077 10.62709785432277 0.6941732603402417 0 0 0
140 1 1 0.6366197723675814 4.165608996244116 10.187538160215318 0.46826091221456345 0 0 0
156 1 1 0.6366197723675814 5.267245411700959 10.39957026338624 0.3200471329482581 0 0 0
157 1 1 0.6366197723675814 6.364460727460862 10.675721866736438 0.17898921265178946 0 0 0
160 1 1 0.6366197723675814 9.46597397079269 10.774517022284249 0.5113744119190449 0 0 0
146 1 1 0.6366197723675814 10.806503690083318 10.210596931466574 0.43765498366456235 0 0 0
148 1 1 0.6366197723675814 13.168458571351655 10.112808517559799 0.2714680752242344 0 0 0
390 1 1 0.6366197723675814 15.263221510519836 10.536245219396598 0.523760209515747 0 0 0
378 1 1 0.6366197723675814 1.9797795700134317 10.95247349245029 0.29002927944448265 0 0 0
379 1 1 0.6366197723675814 3.4883818837819374 11.120633097843848 0.7304490621537109 0 0 0
171 1 1 0.6366197723675814 5.216201428040028 11.516381449258297 0.04445578388988645 0 0 0
161 1 1 0.6366197723675814 10.431963804153597 11.273115586943915 0.2309655113446248 0 0 0
387 1 1 0.6366197723675814 11.593328475534127 10.942579698130475 0.1874127073261094 0 0 0
164 1 1 0.6366197723675814 14.025079963050766 10.896973332987283 0.2502377889766496 0 0 0
166 1 1 0.6366197723675814 0.20002527625135771 11.531615186916218 0.5668478177163384 0 0 0
170 1 1 0.6366197723675814 4.330988397044435 12.036323604600806 0.43683804120831354 0 0 0
174 1 1 0.6366197723675814 8.154244821558871 11.534460529243233 0.35692292010734256 0 0 0
402 1 1 0.6366197723675814 12.357421793792176 12.110712814786297 0.26719026200676377 0 0 0
403 1 1 0.6366197723675814 13.375459682043422 11.921725310337532 0.6519860975315279 0 0 0
167 1 1 0.6366197723675814 0.9105895124506279 12.197560076278128 0.04005872151335202 0 0 0
186 1 1 0.6366197723675814 5.227886227323674 12.645381798036041 16.45833035573967 0 0 -1
176 1 1 0.6366197723675814 11.061183118796093 12.175284485074684 0.11078419703331852 0 0 0
404 1 1 0.6366197723675814 14.637321233494854 12.220949875479393 0.6287178852290962 0 0 0
181 1 1 0.6366197723675814 16.29987056325752 12.787342171917732 0.12919344529605836 -1 0 0
182 1 1 0.6366197723675814 1.097440928025743 13.383668954577951 16.487594989417747 0 0 -1
183 1 1 0.6366197723675814 1.9728641043045467 13.182417810487827 0.6213616422186268 0 0 0
187 1 1 0.6366197723675814 6.377766118395003 13.014832093684575 0.1521547656449176 0 0 0
188 1 1 0.6366197723675814 7.658852791541916 13.603837073883282 0.09641058603112716 0 0 0
415 1 1 0.6366197723675814 10.190403183243978 13.66142960026394 0.7164441158752975 0 0 0
418 1 1 0.6366197723675814 13.411654348967561 13.158390980932738 0.4772185836440616 0 0 0
195 1 1 0.6366197723675814 15.466386408212626 13.556945180107036 16.429950894593716 0 0 -1
201 1 1 0.6366197723675814 5.7403272208540255 13.922172584088765 0.298341830398531 0 0 0
205 1 1 0.6366197723675814 9.564357192933597 14.242327104218992 0.013067326713876885 0 0 0
197 1 1 0.6366197723675814 0.8418679010928205 14.564670008303853 0.3201306473471103 0 0 0
199 1 1 0.6366197723675814 3.1446455211400925 14.660886267275606 0.20206491250270167 0 0 0
215 1 1 0.6366197723675814 4.551148513457609 15.0854772760738 0.09081810995021698 0 0 0
203 1 1 0.6366197723675814 7.467144711124193 14.889063285498489 0.590060497768975 0 0 0
204 1 1 0.6366197723675814 8.479405067737828 14.386289099298724 0.28843022567043425 0 0 0
206 1 1 0.6366197723675814 10.904944976431391 14.346286728845234 16.446087536106617 0 0 -1
432 1 1 0.6366197723675814 12.548133295891823 14.920850249027794 0.6107374838916175 0 0 0
438 1 1 0.6366197723675814 1.6311027776011073 15.28972411026573 0.6700924681116381 0 0 0
3 1 1 0.6366197723675814 2.714683319123289 15.717509532198832 0.08773857090133644 0 -1 0
426 1 1 0.6366197723675814 6.3604937828451185 15.13246227763197 0.6812215263988709 0 0 0
220 1 1 0.6366197723675814 10.162034349672467 15.280446708482975 0.5319223787494302 0 0 0
222 1 1 0.6366197723675814 11.860654987502558 15.71251634819862 0.33643739487145224 0 0 0
449 1 1 0.6366197723675814 13.981764769034676 15.345005870955768 0.5352173084208417 0 0 0
225 1 1 0.6366197723675814 15.238730149541544 15.746495301862593 0.4784121899252112 0 0 0
211 1 1 0.6366197723675814 16.35862519764803 15.23514718955276 0.4381126789291259 -1 0 0
214 1 1 0.6366197723675814 3.8517228515293525 15.90425537249543 0.21350227388422358 0 0 0
6 1 1 0.6366197723675814 6.255243426463193 16.23940918416393 0.0631472561540925 0 -1 0
218 1 1 0.6366197723675814 8.134802926024859 15.786287040011148 0.38143967486552877 0 0 0
9 1 1 0.6366197723675814 9.451975194352602 16.276382423515365 0.2509777561653537 0 -1 0
239 1 1 0.6366197723675814 14.341051439525263 16.467178690723948 0.60511750491232 0 -1 0
1 1 1 0.6366197723675814 16.28130504538078 16.31859021402956 0.2797839107814734 -1 -1 0
229 1 1 0.6366197723675814 3.1226824476312878 0.3183192071920221 0.8029878647221285 0 0 0
234 1 1 0.6366197723675814 8.960249501703831 16.453918230456328 1.4241062562129831 0 -1 0
237 1 1 0.6366197723675814 11.883688108565988 0.07599351296866612 1.3299400007589153 0 0 0
238 1 1 0.6366197723675814 12.974290977360555 0.3926283944701663 1.2750211051141085 0 0 0
242 1 1 0.6366197723675814 1.0995619728317054 0.8649980400634572 1.1543619155690832 0 0 0
244 1 1 0.6366197723675814 3.766519404533161 1.3026125714663592 1.2013058539347792 0 0 0
245 1 1 0.6366197723675814 4.780764097489878 0.8213055039743489 1.16331398927512 0 0 0
232 1 1 0.6366197723675814 6.606717028774118 0.7975702331375492 1.129554274749381 0 0 0
248 1 1 0.6366197723675814 8.19361779039594 1.3714812865525712 1.194993569926137 0 0 0
250 1 1 0.6366197723675814 10.268260764160798 1.4257797843136242 0.8275900643593894 0 0 0
252 1 1 0.6366197723675814 12.174463170137981 1.3426005195420017 1.1352565659992901 0 0 0
254 1 1 0.6366197723675814 14.543872826444945 0.9399009821833658 1.0991901426295854 0 0 0
241 1 1 0.6366197723675814 0.4265652540735795 1.8600676904580018 1.4125801174300645 0 0 0
264 1 1 0.6366197723675814 9.138215785873411 2.135919863776191 1.2138902175559196 0 0 0
269 1 1 0.6366197723675814 14.34595112914629 2.0593898897999687 1.3648302117885585 0 0 0
255 1 1 0.6366197723675814 15.829267054709554 1.5879184578795709 1.1231650049333262 0 0 0
258 1 1 0.6366197723675814 2.26162098292986 2.801995070869605 0.9253197503839279 0 0 0
259 1 1 0.6366197723675814 3.7755939685583835 2.3896674620962934 0.7964842342383448 0 0 0
260 1 1 0.6366197723675814 4.8912326139300015 2.2499567419226896 0.8170653590134908 0 0 0
262 1 1 0.6366197723675814 6.819515210735452 2.8166285049579542 1.0279053272583838 0 0 0
263 1 1 0.6366197723675814 7.846814131009761 2.3978716767018398 0.8574717797444387 0 0 0
266 1 1 0.6366197723675814 11.095146795781568 2.2338437491658594 0.7404734546079516 0 0 0
267 1 1 0.6366197723675814 11.970270841022723 2.4316288047992742 1.2964207591396548 0 0 0
256 1 1 0.6366197723675814 16.374985796604154 2.679479698985322 0.7613097510692403 -1 0 0
280 1 1 0.6366197723675814 9.336671195567954 3.4973088074767937 1.44284139451648 0 0 0
265 1 1 0.6366197723675814 10.355393643092663 3.0533881867756505 1.343752296916653 0 0 0
281 1 1 0.6366197723675814 11.32647422867708 3.4656097183718493 1.0394820400733795 0 0 0
284 1 1 0.6366197723675814 14.553852980405251 3.143349440901791 0.9437550732058854 0 0 0
287 1 1 0.6366197723675814 0.3595825718717362 3.667534518954914 0.7719923102038981 0 0 0
273 1 1 0.6366197723675814 2.590946632990173 4.006311027098623 0.8869578566993704 0 0 0
276 1 1 0.6366197723675814 5.209369425144221 3.735256930687327 1.1893566694843853 0 0 0
277 1 1 0.6366197723675814 6.285777169083928 3.848567517645006 1.0985775844376837 0 0 0
293 1 1 0.6366197723675814 7.336606167820384 4.270103132032472 0.7745965808883509 0 0 0
294 1 1 0.6366197723675814 8.406119855881649 3.996111334506817 1.1045652167344475 0 0 0
283 1 1 0.6366197723675814 13.505537601563155 3.7429128843349435 1.336788534530035 0 0 0
300 1 1 0.6366197723675814 14.746123850613643 4.267718151845019 1.250001532826157 0 0 0
285 1 1 0.6366197723675814 15.641375704367615 3.626092331369513 0.8957824631699012 0 0 0
302 1 1 0.6366197723675814 0.6122324502926432 4.808629483234603 0.9615684547954991 0 0 0
288 1 1 0.6366197723675814 1.714187015689623 4.665534869336229 1.1360943241827524 0 0 0
292 1 1 0.6366197723675814 6.3387879658609485 4.966994684091995 1.0494598164623958 0 0 0
295 1 1 0.6366197723675814 9.382255122687368 4.618623367616925 0.9633634015595306 0 0 0
297 1 1 0.6366197723675814 11.625825290832642 4.572007712283014 1.4108470773900421 0 0 0
298 1 1 0.6366197723675814 12.627292452625886 4.634096281195012 0.88891543581665 0 0 0
299 1 1 0.6366197723675814 13.779223006131371 4.8471729586782155 1.118566409901211 0 0 0
286 1 1 0.6366197723675814 15.844781887991907 4.615157178947176 1.3276054670263162 -1 0 0
309 1 1 0.6366197723675814 8.367519053769572 5.081583690360811 1.247419373382921 0 0 0
85 1 1 0.6366197723675814 9.986268554758853 5.5838016487002164 0.7582523245004179 0 0 0
312 1 1 0.6366197723675814 12.092666744896588 5.55224065618395 1.0322888426848957 0 0 0
315 1 1 0.6366197723675814 15.284595562566953 5.477183684593964 0.8986571563818838 0 0 0
301 1 1 0.6366197723675814 16.38532447068145 5.670934931494883 0.8745563191230109 -1 0 0
317 1 1 0.6366197723675814 0.9029077982585154 6.02589445701283 1.2191821324414582 0 0 0
306 1 1 0.6366197723675814 5.668987089416153 5.9031444118020024 0.9527024748836845 0 0 0
307 1 1 0.6366197723675814 6.8316256740027015 6.060932367902279 1.015365103697385 0 0 0
324 1 1 0.6366197723675814 8.978392455119323 6.1671900145753265 1.0234975668179418 0 0 0
314 1 1 0.6366197723675814 14.24008782026344 5.829615320581351 1.1192479289334625 0 0 0
316 1 1 0.6366197723675814 0.2493881885010948 6.980763229468317 0.8991354643872101 0 0 0
318 1 1 0.6366197723675814 2.236354636575113 6.9362988355507476 1.2561673170112164 0 0 0
321 1 1 0.6366197723675814 6.145352731513732 6.931108595083201 0.8469136935241208 0 0 0
323 1 1 0.6366197723675814 8.044286608166423 6.6739851200097435 1.405584090577607 0 0 0
327 1 1 0.6366197723675814 12.461273420173951 6.68586242793468 1.3687052896158747 0 0 0
328 1 1 0.6366197723675814 13.54945788360877 6.828511401768781 1.130720656561657 0 0 0
329 1 1 0.6366197723675814 14.84053402224442 6.823547775477903 0.9288172845158581 0 0 0
335 1 1 0.6366197723675814 3.892290622756574 7.860830681703491 1.0652826204333685 0 0 0
338 1 1 0.6366197723675814 7.743727230177972 7.757403860696864 1.1125504738926142 0 0 0
339 1 1 0.6366197723675814 9.093292973372233 7.223928049167952 1.1982864071549275 0 0 0
341 1 1 0.6366197723675814 10.975291174324358 7.327304858104214 1.0674653804683611 0 0 0
342 1 1 0.6366197723675814 12.148336816007765 7.6990473195477795 0.9769353212982331 0 0 0
345 1 1 0.6366197723675814 15.7402972675781 7.502145948565845 0.834832122263923 0 0 0
331 1 1 0.6366197723675814 0.08101919922620533 8.165706880665434 1.1362020432559377 0 0 0
349 1 1 0.6366197723675814 3.0142252436148538 8.515772398836996 1.3364553452191208 0 0 0
337 1 1 0.6366197723675814 6.173459462169454 8.065641947840998 0.7796951765669524 0 0 0
115 1 1 0.6366197723675814 9.868577401317761 7.9038671916112095 0.734313612176789 0 0 0
356 1 1 0.6366197723675814 11.33645303130817 8.376488633963184 0.9566496342472478 0 0 0
343 1 1 0.6366197723675814 13.144368321248026 7.925597012413739 1.1672547485411315 0 0 0
344 1 1 0.6366197723675814 14.456385072953976 8.005470504232447 0.9405869529805095 0 0 0
350 1 1 0.6366197723675814 4.3342797564468025 9.251972715231048 1.1564710296370586 0 0 0
351 1 1 0.6366197723675814 5.417922760592275 8.976458341920614 0.7698365711617038 0 0 0
128 1 1 0.6366197723675814 7.1404605207316445 8.65555368133712 0.7260958635638762 0 0 0
358 1 1 0.6366197723675814 12.41064665313511 8.767726265568886 1.0980190684858457 0 0 0
359 1 1 0.6366197723675814 13.797397312987378 8.876923967064908 1.182425316751132 0 0 0
360 1 1 0.6366197723675814 15.532845203539589 8.673649128624618 1.469508897898033 0 0 0
346 1 1 0.6366197723675814 16.42944581582216 9.220918841394042 0.9200357102482665 -1 0 0
364 1 1 0.6366197723675814 2.946755376702515 9.935057491102585 0.9371480367234999 0 0 0
369 1 1 0.6366197723675814 9.229681170377008 9.441927017589347 1.3693643074715733 0 0 0
373 1 1 0.6366197723675814 12.971141058336398 9.722300083330358 1.3146703372478017 0 0 0
375 1 1 0.6366197723675814 14.72713205730581 9.40981903698292 0.8995872339148502 0 0 0
363 1 1 0.6366197723675814 1.8621798264787093 10.11281992218606 1.0499405024145945 0 0 0
368 1 1 0.6366197723675814 7.313973615669734 10.115883839188523 0.8548841777844065 0 0 0
384 1 1 0.6366197723675814 8.415179741515711 10.39460045468761 0.8323885477458564 0 0 0
370 1 1 0.6366197723675814 10.140527746434795 10.10943163923538 1.3281625030675388 0 0 0
386 1 1 0.6366197723675814 11.163591535589394 10.50770184621521 1.4440681552726577 0 0 0
372 1 1 0.6366197723675814 12.21549156863515 10.406023855462726 0.9400044132713403 0 0 0
374 1 1 0.6366197723675814 14.376275066934884 10.393363218842795 1.2497225120058277 0 0 0
361 1 1 0.6366197723675814 16.39591026220864 10.400842178743721 0.8527360020885894 -1 0 0
380 1 1 0.6366197723675814 4.609786976645848 11.152974278557595 1.050219824916157 0 0 0
381 1 1 0.6366197723675814 5.830821509192552 11.073490607714445 1.0246629092523236 0 0 0
382 1 1 0.6366197723675814 6.888859675033005 11.154440656398082 1.0560566837778849 0 0 0
385 1 1 0.6366197723675814 10.240811528982567 11.240889205743757 1.398381911322307 0 0 0
627 1 1 0.6366197723675814 12.430038853751157 11.42571208098855 1.3860339014618306 0 0 0
388 1 1 0.6366197723675814 13.29800600493929 10.838472021254272 1.1258467288133696 0 0 0
392 1 1 0.6366197723675814 1.3589168479737657 11.634737918261607 0.914890674263405 0 0 0
393 1 1 0.6366197723675814 2.5535669492907815 11.951492666301391 0.7919566572944545 0 0 0
394 1 1 0.6366197723675814 3.6010664968395605 12.104647978429293 1.277021554295955 0 0 0
396 1 1 0.6366197723675814 5.783610423989619 12.19322213884814 0.8657386990446057 0 0 0
399 1 1 0.6366197723675814 9.191558332481547 11.820739231488472 0.7912242941521948 0 0 0
401 1 1 0.6366197723675814 11.327120242287247 11.601510344687261 1.0378515148310128 0 0 0
405 1 1 0.6366197723675814 15.631755977867968 11.797226406353003 0.8406754783891174 0 0 0
407 1 1 0.6366197723675814 1.070341383969507 12.755498696321943 1.3868890967433405 0 0 0
397 1 1 0.6366197723675814 6.8556903076206925 12.309972511769725 1.0779722482885787 0 0 0
398 1 1 0.6366197723675814 8.248289391759256 12.555164450306313 0.8329944709857015 0 0 0
414 1 1 0.6366197723675814 9.341464936869365 12.900317406875102 0.8881669015644127 0 0 0
400 1 1 0.6366197723675814 10.401682185559501 12.547818218903876 0.9938083656405658 0 0 0
416 1 1 0.6366197723675814 11.733861578697178 12.751619182759471 0.903738802965725 0 0 0
643 1 1 0.6366197723675814 12.72961476598121 12.571733676647627 1.3168113661513552 0 0 0
629 1 1 0.6366197723675814 13.912920345097032 12.568353151181764 1.3890009646586516 0 0 0
391 1 1 0.6366197723675814 16.350268076774 12.465811675188 1.2063312453989405 -1 0 0
406 1 1 0.6366197723675814 0.291034251223851 13.500183280199762 1.0426099989449682 0 0 0
409 1 1 0.6366197723675814 3.0548423539536946 13.04175348021831 0.9373655038548865 0 0 0
410 1 1 0.6366197723675814 4.54438117885641 13.120990353968859 0.844716814070252 0 0 0
411 1 1 0.6366197723675814 5.571673270126119 13.338931298339167 1.3686643853842024 0 0 0
412 1 1 0.6366197723675814 6.762533886375499 13.552615671999064 1.0482709431929218 0 0 0
413 1 1 0.6366197723675814 8.054908983164902 13.64277645339902 1.1219818324763438 0 0 0
417 1 1 0.6366197723675814 12.442688646988907 13.563322783217735 0.7845507543502039 0 0 0
419 1 1 0.6366197723675814 14.391833600784434 13.56432024827749 0.869964961883579 0 0 0
420 1 1 0.6366197723675814 15.412430667191641 13.089852479520417 0.9456974834731084 0 0 0
422 1 1 0.6366197723675814 1.5539877663468988 14.341182110767521 1.209747714577692 0 0 0
423 1 1 0.6366197723675814 2.726345882326561 14.299864741450033 1.212316740582924 0 0 0
424 1 1 0.6366197723675814 3.7783713926245444 13.96170330879926 1.0266700259425672 0 0 0
425 1 1 0.6366197723675814 4.891077349027565 14.176450375272664 1.0146002642058989 0 0 0
429 1 1 0.6366197723675814 9.136266630954836 13.97935615854356 1.136543436718907 0 0 0
431 1 1 0.6366197723675814 11.248600201426598 13.778504667766466 0.9284651960782084 0 0 0
433 1 1 0.6366197723675814 13.408984549471807 14.24452439697127 0.8473761953057942 0 0 0
435 1 1 0.6366197723675814 15.900247282894313 14.179651272909462 1.2460209165123357 0 0 0
421 1 1 0.6366197723675814 0.48754492432879953 14.685646056281659 1.4895011033661398 0 0 0
440 1 1 0.6366197723675814 3.7512060541091197 15.13001884804144 1.0464942526648062 0 0 0
430 1 1 0.6366197723675814 10.089738650868465 14.526102507137617 1.3118656121628238 0 0 0
446 1 1 0.6366197723675814 11.215532613644491 14.925304127896814 0.9106623070642099 0 0 0
434 1 1 0.6366197723675814 14.875582380300848 14.640727165369261 1.0914882274209536 0 0 0
439 1 1 0.6366197723675814 2.6173013407939636 15.537808080751105 1.1948881995337015 0 0 0
441 1 1 0.6366197723675814 5.258456060741073 15.305482954971206 0.916975570181143 0 0 0
444 1 1 0.6366197723675814 9.10280333689825 15.316135075023848 1.0738980141955556 0 0 0
227 1 1 0.6366197723675814 1.8067786931823215 16.34006497336755 1.22434822838028 0 -1 0
230 1 1 0.6366197723675814 4.595992299423053 16.27812742820615 1.1124394975718013 0 -1 0
231 1 1 0.6366197723675814 5.805203393731147 16.271052864634083 1.0846172889725005 0 -1 0
236 1 1 0.6366197723675814 11.003569118353248 16.043544828942125 0.9669477581679302 0 -1 0
448 1 1 0.6366197723675814 12.999120499408587 15.858720035443877 0.8215029515300116 0 0 0
436 1 1 0.6366197723675814 16.370664504562086 16.030745333875725 1.3666074562443067 -1 0 0
226 1 1 0.6366197723675814 16.44821180687874 0.6283214056259471 1.5605356622611177 -1 0 0
452 1 1 0.6366197723675814 1.3978130182211395 0.42064857773794956 2.1269348599930624 0 0 0
228 1 1 0.6366197723675814 2.4633045243473863 0.6561446752192727 1.6265552924712043 0 0 0
470 1 1 0.6366197723675814 4.063687463474192 0.4444289441702587 2.0248595915980525 0 0 0
456 1 1 0.6366197723675814 5.118464619378414 0.32412530526010663 2.1124381849104705 0 0 0
457 1 1 0.6366197723675814 6.208626316975233 16.488403060434557 2.0812085920515306 0 -1 0
458 1 1 0.6366197723675814 7.922051572863717 0.3384927777222814 1.5621148687882087 0 0 0
235 1 1 0.6366197723675814 9.950754335357644 0.4545859914359605 1.8772314790402769 0 0 0
479 1 1 0.6366197723675814 13.910792322784921 0.6326376743398909 1.973820270256584 0 0 0
240 1 1 0.6366197723675814 15.235986861001077 0.1854448326494301 1.5247101071618094 0 0 0
246 1 1 0.6366197723675814 5.735225013156736 1.189276680412867 1.7114254446900228 0 0 0
251 1 1 0.6366197723675814 11.073850774771309 0.9755821186211519 1.5133984615177491 0 0 0
477 1 1 0.6366197723675814 12.299497637038693 0.731745102742004 2.1430467196104197 0 0 0
480 1 1 0.6366197723675814 15.122808758468377 1.3464226323378858 1.9044304724879435 0 0 0
257 1 1 0.6366197723675814 1.6132888117065607 1.9788224334693911 1.5059556039986615 0 0 0
243 1 1 0.6366197723675814 2.793833220308498 1.7717369940195595 1.4626079911584517 0 0 0
485 1 1 0.6366197723675814 4.890512308574481 1.8389607361411344 1.8964692918813089 0 0 0
487 1 1 0.6366197723675814 6.560400674405236 1.9000629012696035 1.523376306361916 0 0 0
490 1 1 0.6366197723675814 9.689423698275544 1.5858980596295762 2.0313178898804876 0 0 0
253 1 1 0.6366197723675814 13.148247756719973 1.4432260958704022 1.8937600544482187 0 0 0
484 1 1 0.6366197723675814 3.8759017550910166 2.2381880457109493 1.9644860841496616 0 0 0
486 1 1 0.6366197723675814 5.696353095808896 2.7323504915427876 1.3709173970333064 0 0 0
488 1 1 0.6366197723675814 7.279099050557805 2.4689047742071173 2.0390577699091765 0 0 0
491 1 1 0.6366197723675814 11.074658398212934 2.2200747694204455 1.9657475789433827 0 0 0
493 1 1 0.6366197723675814 12.993944380004528 2.7578469489952124 1.5595432859183618 0 0 0
270 1 1 0.6366197723675814 15.491600982569047 2.6457236187757505 1.510416916407375 0 0 0
272 1 1 0.6366197723675814 0.8477682887490803 2.934243997887575 1.5371420683108798 0 0 0
274 1 1 0.6366197723675814 3.166067601650616 3.0387006117435145 1.536098402126095 0 0 0
275 1 1 0.6366197723675814 4.228466289126616 3.3079320264367245 1.411341022252374 0 0 0
504 1 1 0.6366197723675814 8.425124042920721 2.8594825362161407 1.6483969717287479 0 0 0
509 1 1 0.6366197723675814 13.996541620060277 2.958605415109072 2.037721308805063 0 0 0
510 1 1 0.6366197723675814 14.991215326818816 3.495019684720657 1.964313533322623 0 0 0
271 1 1 0.6366197723675814 16.294093449242776 3.453524180994122 1.6899989552627712 -1 0 0
512 1 1 0.6366197723675814 0.8285202469975637 4.05758127693043 1.7054775054866396 0 0 0
498 1 1 0.6366197723675814 2.105136249679955 3.601511724890111 1.7747777569147296 0 0 0
514 1 1 0.6366197723675814 3.455192474603397 4.099367927400589 1.6047986742979836 0 0 0
515 1 1 0.6366197723675814 4.510267068104567 4.268984818584051 1.9362731777938538 0 0 0
278 1 1 0.6366197723675814 7.080823496174702 3.5434264692269455 1.8253417100859306 0 0 0
296 1 1 0.6366197723675814 10.127680877823037 4.252987998334128 1.6160290565211501 0 0 0
282 1 1 0.6366197723675814 12.356017625366402 3.6908549243181707 1.4056073665105888 0 0 0
516 1 1 0.6366197723675814 5.486265940702117 4.862289657449073 1.864664631792974 0 0 0
518 1 1 0.6366197723675814 7.764894909750539 4.460760053232315 1.9959035545894195 0 0 0
519 1 1 0.6366197723675814 8.925735834634706 4.399159575068631 2.0298050284705886 0 0 0