ITEM: TIMESTEP
0
ITEM: NUMBER OF ATOMS
3375
ITEM: BOX BOUNDS pp pp pp
0.0000000000000000e+00 1.6509636244473135e+01
0.0000000000000000e+00 1.6509636244473135e+01
0.0000000000000000e+00 1.6509636244473135e+01
ITEM: ATOMS id type xs ys zs
1 1 0 0 0
2 1 0.0666667 0 0
3 1 0.133333 0 0
4 1 0.2 0 0
5 1 0.266667 0 0
6 1 0.333333 0 0
7 1 0.4 0 0
8 1 0.466667 0 0
9 1 0.533333 0 0
10 1 0.6 0 0
11 1 0.666667 0 0
12 1 0.733333 0 0
13 1 0.8 0 0
14 1 0.866667 0 0
15 1 0.933333 0 0
16 1 0 0.0666667 0
17 1 0.0666667 0.0666667 0
18 1 0.133333 0.0666667 0
19 1 0.2 0.0666667 0
20 1 0.266667 0.0666667 0
21 1 0.333333 0.0666667 0
22 1 0.4 0.0666667 0
23 1 0.466667 0.0666667 0
24 1 0.533333 0.0666667 0
25 1 0.6 0.0666667 0
26 1 0.666667 0.0666667 0
27 1 0.733333 0.0666667 0
28 1 0.8 0.0666667 0
29 1 0.866667 0.0666667 0
30 1 0.933333 0.0666667 0
31 1 0 0.133333 0
32 1 0.0666667 0.133333 0
33 1 0.133333 0.133333 0
34 1 0.2 0.133333 0
35 1 0.266667 0.133333 0
36 1 0.333333 0.133333 0
37 1 0.4 0.133333 0
38 1 0.466667 0.133333 0
39 1 0.533333 0.133333 0
40 1 0.6 0.133333 0
41 1 0.666667 0.133333 0
42 1 0.733333 0.133333 0
43 1 0.8 0.133333 0
44 1 0.866667 0.133333 0
45 1 0.933333 0.133333 0
46 1 0 0.2 0
47 1 0.0666667 0.2 0
48 1 0.133333 0.2 0
49 1 0.2 0.2 0
50 1 0.266667 0.2 0
51 1 0.333333 0.2 0
52 1 0.4 0.2 0
53 1 0.466667 0.2 0
54 1 0.533333 0.2 0
55 1 0.6 0.2 0
56 1 0.666667 0.2 0
57 1 0.733333 0.2 0
58 1 0.8 0.2 0
59 1 0.866667 0.2 0
60 1 0.933333 0.2 0
61 1 0 0.266667 0
62 1 0.0666667 0.266667 0
63 1 0.133333 0.266667 0
64 1 0.2 0.266667 0
65 1 0.266667 0.266667 0
66 1 0.333333 0.266667 0
67 1 0.4 0.266667 0
68 1 0.466667 0.266667 0
69 1 0.533333 0.266667 0
70 1 0.6 0.266667 0
71 1 0.666667 0.266667 0
72 1 0.733333 0.266667 0
73 1 0.8 0.266667 0
74 1 0.866667 0.266667 0
75 1 0.933333 0.266667 0
76 1 0 0.333333 0
77 1 0.0666667 0.333333 0
78 1 0.133333 0.333333 0
79 1 0.2 0.333333 0
80 1 0.266667 0.333333 0
81 1 0.333333 0.333333 0
82 1 0.4 0.333333 0
83 1 0.466667 0.333333 0
84 1 0.533333 0.333333 0
85 1 0.6 0.333333 0
86 1 0.666667 0.333333 0
87 1 0.733333 0.333333 0
88 1 0.8 0.333333 0
89 1 0.866667 0.333333 0
90 1 0.933333 0.333333 0
91 1 0 0.4 0
92 1 0.0666667 0.4 0
93 1 0.133333 0.4 0
94 1 0.2 0.4 0
95 1 0.266667 0.4 0
96 1 0.333333 0.4 0
97 1 0.4 0.4 0
98 1 0.466667 0.4 0
99 1 0.533333 0.4 0
100 1 0.6 0.4 0
101 1 0.666667 0.4 0
102 1 0.733333 0.4 0
103 1 0.8 0.4 0
104 1 0.866667 0.4 0
105 1 0.933333 0.4 0
106 1 0 0.466667 0
107 1 0.0666667 0.466667 0
108 1 0.133333 0.466667 0
109 1 0.2 0.466667 0
110 1 0.266667 0.466667 0
111 1 0.333333 0.466667 0
112 1 0.4 0.466667 0
113 1 0.466667 0.466667 0
114 1 0.533333 0.466667 0
115 1 0.6 0.466667 0
116 1 0.666667 0.466667 0
117 1 0.733333 0.466667 0
118 1 0.8 0.466667 0
119 1 0.866667 0.466667 0
120 1 0.933333 0.466667 0
121 1 0 0.533333 0
122 1 0.0666667 0.533333 0
123 1 0.133333 0.533333 0
124 1 0.2 0.533333 0
125 1 0.266667 0.533333 0
126 1 0.333333 0.533333 0
127 1 0.4 0.533333 0
128 1 0.466667 0.533333 0
129 1 0.533333 0.533333 0
130 1 0.6 0.533333 0
131 1 0.666667 0.533333 0
132 1 0.733333 0.533333 0
133 1 0.8 0.533333 0
134 1 0.866667 0.533333 0
135 1 0.933333 0.533333 0
136 1 0 0.6 0
137 1 0.0666667 0.6 0
138 1 0.133333 0.6 0
139 1 0.2 0.6 0
140 1 0.266667 0.6 0
141 1 0.333333 0.6 0
142 1 0.4 0.6 0
143 1 0.466667 0.6 0
144 1 0.533333 0.6 0
145 1 0.6 0.6 0
146 1 0.666667 0.6 0
147 1 0.733333 0.6 0
148 1 0.8 0.6 0
149 1 0.866667 0.6 0
150 1 0.933333 0.6 0
151 1 0 0.666667 0
152 1 0.0666667 0.666667 0
153 1 0.133333 0.666667 0
154 1 0.2 0.666667 0
155 1 0.266667 0.666667 0
156 1 0.333333 0.666667 0
157 1 0.4 0.666667 0
158 1 0.466667 0.666667 0
159 1 0.533333 0.666667 0
160 1 0.6 0.666667 0
161 1 0.666667 0.666667 0
162 1 0.733333 0.666667 0
163 1 0.8 0.666667 0
164 1 0.866667 0.666667 0
165 1 0.933333 0.666667 0
166 1 0 0.733333 0
167 1 0.0666667 0.733333 0
168 1 0.133333 0.733333 0
169 1 0.2 0.733333 0
170 1 0.266667 0.733333 0
171 1 0.333333 0.733333 0
172 1 0.4 0.733333 0
173 1 0.466667 0.733333 0
174 1 0.533333 0.733333 0
175 1 0.6 0.733333 0
176 1 0.666667 0.733333 0
177 1 0.733333 0.733333 0
178 1 0.8 0.733333 0
179 1 0.866667 0.733333 0
180 1 0.933333 0.733333 0
181 1 0 0.8 0
182 1 0.0666667 0.8 0
183 1 0.133333 0.8 0
184 1 0.2 0.8 0
185 1 0.266667 0.8 0
186 1 0.333333 0.8 0
187 1 0.4 0.8 0
188 1 0.466667 0.8 0
189 1 0.533333 0.8 0
190 1 0.6 0.8 0
191 1 0.666667 0.8 0
192 1 0.733333 0.8 0
193 1 0.8 0.8 0
194 1 0.866667 0.8 0
195 1 0.933333 0.8 0
196 1 0 0.866667 0
197 1 0.0666667 0.866667 0
198 1 0.133333 0.866667 0
199 1 0.2 0.866667 0
200 1 0.266667 0.866667 0
201 1 0.333333 0.866667 0
202 1 0.4 0.866667 0
203 1 0.466667 0.866667 0
204 1 0.533333 0.866667 0
205 1 0.6 0.866667 0
206 1 0.666667 0.866667 0
207 1 0.733333 0.866667 0
208 1 0.8 0.866667 0
209 1 0.866667 0.866667 0
210 1 0.933333 0.866667 0
211 1 0 0.933333 0
212 1 0.0666667 0.933333 0
213 1 0.133333 0.933333 0
214 1 0.2 0.933333 0
215 1 0.266667 0.933333 0
216 1 0.333333 0.933333 0
217 1 0.4 0.933333 0
218 1 0.466667 0.933333 0
219 1 0.533333 0.933333 0
220 1 0.6 0.933333 0
221 1 0.666667 0.933333 0
222 1 0.733333 0.933333 0
223 1 0.8 0.933333 0
224 1 0.866667 0.933333 0
225 1 0.933333 0.933333 0
226 1 0 0 0.0666667
227 1 0.0666667 0 0.0666667
228 1 0.133333 0 0.0666667
229 1 0.2 0 0.0666667
230 1 0.266667 0 0.0666667
231 1 0.333333 0 0.0666667
232 1 0.4 0 0.0666667
233 1 0.466667 0 0.0666667
234 1 0.533333 0 0.0666667
235 1 0.6 0 0.0666667
236 1 0.666667 0 0.0666667
237 1 0.733333 0 0.0666667
238 1 0.8 0 0.0666667
239 1 0.866667 0 0.0666667
240 1 0.933333 0 0.0666667
241 1 0 0.0666667 0.0666667
242 1 0.0666667 0.0666667 0.0666667
243 1 0.133333 0.0666667 0.0666667
244 1 0.2 0.0666667 0.0666667
245 1 0.266667 0.0666667 0.0666667
246 1 0.333333 0.0666667 0.0666667
247 1 0.4 0.0666667 0.0666667
248 1 0.466667 0.0666667 0.0666667
249 1 0.533333 0.0666667 0.0666667
250 1 0.6 0.0666667 0.0666667
251 1 0.666667 0.0666667 0.0666667
252 1 0.733333 0.0666667 0.0666667
253 1 0.8 0.0666667 0.0666667
254 1 0.866667 0.0666667 0.0666667
255 1 0.933333 0.0666667 0.0666667
256 1 0 0.133333 0.0666667
257 1 0.0666667 0.133333 0.0666667
258 1 0.133333 0.133333 0.0666667
259 1 0.2 0.133333 0.0666667
260 1 0.266667 0.133333 0.0666667
261 1 0.333333 0.133333 0.0666667
262 1 0.4 0.133333 0.0666667
263 1 0.466667 0.133333 0.0666667
264 1 0.533333 0.133333 0.0666667
265 1 0.6 0.133333 0.0666667
266 1 0.666667 0.133333 0.0666667
267 1 0.733333 0.133333 0.0666667
268 1 0.8 0.133333 0.0666667
269 1 0.866667 0.133333 0.0666667
270 1 0.933333 0.133333 0.0666667
271 1 0 0.2 0.0666667
272 1 0.0666667 0.2 0.0666667
273 1 0.133333 0.2 0.0666667
274 1 0.2 0.2 0.0666667
275 1 0.266667 0.2 0.0666667
276 1 0.333333 0.2 0.0666667
277 1 0.4 0.2 0.0666667
278 1 0.466667 0.2 0.0666667
279 1 0.533333 0.2 0.0666667
280 1 0.6 0.2 0.0666667
281 1 0.666667 0.2 0.0666667
282 1 0.733333 0.2 0.0666667
283 1 0.8 0.2 0.0666667
284 1 0.866667 0.2 0.0666667
285 1 0.933333 0.2 0.0666667
286 1 0 0.266667 0.0666667
287 1 0.0666667 0.266667 0.0666667
288 1 0.133333 0.266667 0.0666667
289 1 0.2 0.266667 0.0666667
290 1 0.266667 0.266667 0.0666667
291 1 0.333333 0.266667 0.0666667
292 1 0.4 0.266667 0.0666667
293 1 0.466667 0.266667 0.0666667
294 1 0.533333 0.266667 0.0666667
295 1 0.6 0.266667 0.0666667
296 1 0.666667 0.266667 0.0666667
297 1 0.733333 0.266667 0.0666667
298 1 0.8 0.266667 0.0666667
299 1 0.866667 0.266667 0.0666667
300 1 0.933333 0.266667 0.0666667
301 1 0 0.333333 0.0666667
302 1 0.0666667 0.333333 0.0666667
303 1 0.133333 0.333333 0.0666667
304 1 0.2 0.333333 0.0666667
305 1 0.266667 0.333333 0.0666667
306 1 0.333333 0.333333 0.0666667
307 1 0.4 0.333333 0.0666667
308 1 0.466667 0.333333 0.0666667
309 1 0.533333 0.333333 0.0666667
310 1 0.6 0.333333 0.0666667
311 1 0.666667 0.333333 0.0666667
312 1 0.733333 0.333333 0.0666667
313 1 0.8 0.333333 0.0666667
314 1 0.866667 0.333333 0.0666667
315 1 0.933333 0.333333 0.0666667
316 1 0 0.4 0.0666667
317 1 0.0666667 0.4 0.0666667
318 1 0.133333 0.4 0.0666667
319 1 0.2 0.4 0.0666667
320 1 0.266667 0.4 0.0666667
321 1 0.333333 0.4 0.0666667
322 1 0.4 0.4 0.0666667
323 1 0.466667 0.4 0.0666667
324 1 0.533333 0.4 0.0666667
325 1 0.6 0.4 0.0666667
326 1 0.666667 0.4 0.0666667
327 1 0.733333 0.4 0.0666667
328 1 0.8 0.4 0.0666667
329 1 0.866667 0.4 0.0666667
330 1 0.933333 0.4 0.0666667
331 1 0 0.466667 0.0666667
332 1 0.0666667 0.466667 0.0666667
333 1 0.133333 0.466667 0.0666667
334 1 0.2 0.466667 0.0666667
335 1 0.266667 0.466667 0.0666667
336 1 0.333333 0.466667 0.0666667
337 1 0.4 0.466667 0.0666667
338 1 0.466667 0.466667 0.0666667
339 1 0.533333 0.466667 0.0666667
340 1 0.6 0.466667 0.0666667
341 1 0.666667 0.466667 0.0666667
342 1 0.733333 0.466667 0.0666667
343 1 0.8 0.466667 0.0666667
344 1 0.866667 0.466667 0.0666667
345 1 0.933333 0.466667 0.0666667
346 1 0 0.533333 0.0666667
347 1 0.0666667 0.533333 0.0666667
348 1 0.133333 0.533333 0.0666667
349 1 0.2 0.533333 0.0666667
350 1 0.266667 0.533333 0.0666667
351 1 0.333333 0.533333 0.0666667
352 1 0.4 0.533333 0.0666667
353 1 0.466667 0.533333 0.0666667
354 1 0.533333 0.533333 0.0666667
355 1 0.6 0.533333 0.0666667
356 1 0.666667 0.533333 0.0666667
357 1 0.733333 0.533333 0.0666667
358 1 0.8 0.533333 0.0666667
359 1 0.866667 0.533333 0.0666667
360 1 0.933333 0.533333 0.0666667
361 1 0 0.6 0.0666667
362 1 0.0666667 0.6 0.0666667
363 1 0.133333 0.6 0.0666667
364 1 0.2 0.6 0.0666667
365 1 0.266667 0.6 0.0666667
366 1 0.333333 0.6 0.0666667
367 1 0.4 0.6 0.0666667
368 1 0.466667 0.6 0.0666667
369 1 0.533333 0.6 0.0666667
370 1 0.6 0.6 0.0666667
371 1 0.666667 0.6 0.0666667
372 1 0.733333 0.6 0.0666667
373 1 0.8 0.6 0.0666667
374 1 0.866667 0.6 0.0666667
375 1 0.933333 0.6 0.0666667
376 1 0 0.666667 0.0666667
377 1 0.0666667 0.666667 0.0666667
378 1 0.133333 0.666667 0.0666667
379 1 0.2 0.666667 0.0666667
380 1 0.266667 0.666667 0.0666667
381 1 0.333333 0.666667 0.0666667
382 1 0.4 0.666667 0.0666667
383 1 0.466667 0.666667 0.0666667
384 1 0.533333 0.666667 0.0666667
385 1 0.6 0.666667 0.0666667
386 1 0.666667 0.666667 0.0666667
387 1 0.733333 0.666667 0.0666667
388 1 0.8 0.666667 0.0666667
389 1 0.866667 0.666667 0.0666667
390 1 0.933333 0.666667 0.0666667
391 1 0 0.733333 0.0666667
392 1 0.0666667 0.733333 0.0666667
393 1 0.133333 0.733333 0.0666667
394 1 0.2 0.733333 0.0666667
395 1 0.266667 0.733333 0.0666667
396 1 0.333333 0.733333 0.0666667
397 1 0.4 0.733333 0.0666667
398 1 0.466667 0.733333 0.0666667
399 1 0.533333 0.733333 0.0666667
400 1 0.6 0.733333 0.0666667
401 1 0.666667 0.733333 0.0666667
402 1 0.733333 0.733333 0.0666667
403 1 0.8 0.733333 0.0666667
404 1 0.866667 0.733333 0.0666667
405 1 0.933333 0.733333 0.0666667
406 1 0 0.8 0.0666667
407 1 0.0666667 0.8 0.0666667
408 1 0.133333 0.8 0.0666667
409 1 0.2 0.8 0.0666667
410 1 0.266667 0.8 0.0666667
411 1 0.333333 0.8 0.0666667
412 1 0.4 0.8 0.0666667
413 1 0.466667 0.8 0.0666667
414 1 0.533333 0.8 0.0666667
415 1 0.6 0.8 0.0666667
416 1 0.666667 0.8 0.0666667
417 1 0.733333 0.8 0.0666667
418 1 0.8 0.8 0.0666667
419 1 0.866667 0.8 0.0666667
420 1 0.933333 0.8 0.0666667
421 1 0 0.866667 0.0666667
422 1 0.0666667 0.866667 0.0666667
423 1 0.133333 0.866667 0.0666667
424 1 0.2 0.866667 0.0666667
425 1 0.266667 0.866667 0.0666667
426 1 0.333333 0.866667 0.0666667
427 1 0.4 0.866667 0.0666667
428 1 0.466667 0.866667 0.0666667
429 1 0.533333 0.866667 0.0666667
430 1 0.6 0.866667 0.0666667
431 1 0.666667 0.866667 0.0666667
432 1 0.733333 0.866667 0.0666667
433 1 0.8 0.866667 0.0666667
434 1 0.866667 0.866667 0.0666667
435 1 0.933333 0.866667 0.0666667
436 1 0 0.933333 0.0666667
437 1 0.0666667 0.933333 0.0666667
438 1 0.133333 0.933333 0.0666667
439 1 0.2 0.933333 0.0666667
440 1 0.266667 0.933333 0.0666667
441 1 0.333333 0.933333 0.0666667
442 1 0.4 0.933333 0.0666667
443 1 0.466667 0.933333 0.0666667
444 1 0.533333 0.933333 0.0666667
445 1 0.6 0.933333 0.0666667
446 1 0.666667 0.933333 0.0666667
447 1 0.733333 0.933333 0.0666667
448 1 0.8 0.933333 0.0666667
449 1 0.866667 0.933333 0.0666667
450 1 0.933333 0.933333 0.0666667
451 1 0 0 0.133333
452 1 0.0666667 0 0.133333
453 1 0.133333 0 0.133333
454 1 0.2 0 0.133333
455 1 0.266667 0 0.133333
456 1 0.333333 0 0.133333
457 1 0.4 0 0.133333
458 1 0.466667 0 0.133333
459 1 0.533333 0 0.133333
460 1 0.6 0 0.133333
461 1 0.666667 0 0.133333
462 1 0.733333 0 0.133333
463 1 0.8 0 0.133333
464 1 0.866667 0 0.133333
465 1 0.933333 0 0.133333
466 1 0 0.0666667 0.133333
467 1 0.0666667 0.0666667 0.133333
468 1 0.133333 0.0666667 0.133333
469 1 0.2 0.0666667 0.133333
470 1 0.266667 0.0666667 0.133333
471 1 0.333333 0.0666667 0.133333
472 1 0.4 0.0666667 0.133333
473 1 0.466667 0.0666667 0.133333
474 1 0.533333 0.0666667 0.133333
475 1 0.6 0.0666667 0.133333
476 1 0.666667 0.0666667 0.133333
477 1 0.733333 0.0666667 0.133333
478 1 0.8 0.0666667 0.133333
479 1 0.866667 0.0666667 0.133333
480 1 0.933333 0.0666667 0.133333
481 1 0 0.133333 0.133333
482 1 0.0666667 0.133333 0.133333
483 1 0.133333 0.133333 0.133333
484 1 0.2 0.133333 0.133333
485 1 0.266667 0.133333 0.133333
486 1 0.333333 0.133333 0.133333
487 1 0.4 0.133333 0.133333
488 1 0.466667 0.133333 0.133333
489 1 0.533333 0.133333 0.133333
490 1 0.6 0.133333 0.133333
491 1 0.666667 0.133333 0.133333
492 1 0.733333 0.133333 0.133333
493 1 0.8 0.133333 0.133333
494 1 0.866667 0.133333 0.133333
495 1 0.933333 0.133333 0.133333
496 1 0 0.2 0.133333
497 1 0.0666667 0.2 0.133333
498 1 0.133333 0.2 0.133333
499 1 0.2 0.2 0.133333
500 1 0.266667 0.2 0.133333
501 1 0.333333 0.2 0.133333
502 1 0.4 0.2 0.133333
503 1 0.466667 0.2 0.133333
504 1 0.533333 0.2 0.133333
505 1 0.6 0.2 0.133333
506 1 0.666667 0.2 0.133333
507 1 0.733333 0.2 0.133333
508 1 0.8 0.2 0.133333
509 1 0.866667 0.2 0.133333
510 1 0.933333 0.2 0.133333
511 1 0 0.266667 0.133333
512 1 0.0666667 0.266667 0.133333
513 1 0.133333 0.266667 0.133333
514 1 0.2 0.266667 0.133333
515 1 0.266667 0.266667 0.133333
516 1 0.333333 0.266667 0.133333
517 1 0.4 0.266667 0.133333
518 1 0.466667 0.266667 0.133333
519 1 0.533333 0.266667 0.133333
520 1 0.6 0.266667 0.133333
521 1 0.666667 0.266667 0.133333
522 1 0.733333 0.266667 0.133333
523 1 0.8 0.266667 0.133333
524 1 0.866667 0.266667 0.133333
525 1 0.933333 0.266667 0.133333
526 1 0 0.333333 0.133333
527 1 0.0666667 0.333333 0.133333
528 1 0.133333 0.333333 0.133333
529 1 0.2 0.333333 0.133333
530 1 0.266667 0.333333 0.133333
531 1 0.333333 0.333333 0.133333
532 1 0.4 0.333333 0.133333
533 1 0.466667 0.333333 0.133333
534 1 0.533333 0.333333 0.133333
535 1 0.6 0.333333 0.133333
536 1 0.666667 0.333333 0.133333
537 1 0.733333 0.333333 0.133333
538 1 0.8 0.333333 0.133333
539 1 0.866667 0.333333 0.133333
540 1 0.933333 0.333333 0.133333
541 1 0 0.4 0.133333
542 1 0.0666667 0.4 0.133333
543 1 0.133333 0.4 0.133333
544 1 0.2 0.4 0.133333
545 1 0.266667 0.4 0.133333
546 1 0.333333 0.4 0.133333
547 1 0.4 0.4 0.133333
548 1 0.466667 0.4 0.133333
549 1 0.533333 0.4 0.133333
550 1 0.6 0.4 0.133333
551 1 0.666667 0.4 0.133333
552 1 0.733333 0.4 0.133333
553 1 0.8 0.4 0.133333
554 1 0.866667 0.4 0.133333
555 1 0.933333 0.4 0.133333
556 1 0 0.466667 0.133333
557 1 0.0666667 0.466667 0.133333
558 1 0.133333 0.466667 0.133333
559 1 0.2 0.466667 0.133333
560 1 0.266667 0.466667 0.133333
561 1 0.333333 0.466667 0.133333
562 1 0.4 0.466667 0.133333
563 1 0.466667 0.466667 0.133333
564 1 0.533333 0.466667 0.133333
565 1 0.6 0.466667 0.133333
566 1 0.666667 0.466667 0.133333
567 1 0.733333 0.466667 0.133333
568 1 0.8 0.466667 0.133333
569 1 0.866667 0.466667 0.133333
570 1 0.933333 0.466667 0.133333
571 1 0 0.533333 0.133333
572 1 0.0666667 0.533333 0.133333
573 1 0.133333 0.533333 0.133333
574 1 0.2 0.533333 0.133333
575 1 0.266667 0.533333 0.133333
576 1 0.333333 0.533333 0.133333
577 1 0.4 0.533333 0.133333
578 1 0.466667 0.533333 0.133333
579 1 0.533333 0.533333 0.133333
580 1 0.6 0.533333 0.133333
581 1 0.666667 0.533333 0.133333
582 1 0.733333 0.533333 0.133333
583 1 0.8 0.533333 0.133333
584 1 0.866667 0.533333 0.133333
585 1 0.933333 0.533333 0.133333
586 1 0 0.6 0.133333
587 1 0.0666667 0.6 0.133333
588 1 0.133333 0.6 0.133333
589 1 0.2 0.6 0.133333
590 1 0.266667 0.6 0.133333
591 1 0.333333 0.6 0.133333
592 1 0.4 0.6 0.133333
593 1 0.466667 0.6 0.133333
594 1 0.533333 0.6 0.133333
595 1 0.6 0.6 0.133333
596 1 0.666667 0.6 0.133333
597 1 0.733333 0.6 0.133333
598 1 0.8 0.6 0.133333
599 1 0.866667 0.6 0.133333
600 1 0.933333 0.6 0.133333
601 1 0 0.666667 0.133333
602 1 0.0666667 0.666667 0.133333
603 1 0.133333 0.666667 0.133333
604 1 0.2 0.666667 0.133333
605 1 0.266667 0.666667 0.133333
606 1 0.333333 0.666667 0.133333
607 1 0.4 0.666667 0.133333
608 1 0.466667 0.666667 0.133333
609 1 0.533333 0.666667 0.133333
610 1 0.6 0.666667 0.133333
611 1 0.666667 0.666667 0.133333
612 1 0.733333 0.666667 0.133333
613 1 0.8 0.666667 0.133333
614 1 0.866667 0.666667 0.133333
615 1 0.933333 0.666667 0.133333
616 1 0 0.733333 0.133333
617 1 0.0666667 0.733333 0.133333
618 1 0.133333 0.733333 0.133333
619 1 0.2 0.733333 0.133333
620 1 0.266667 0.733333 0.133333
621 1 0.333333 0.733333 0.133333
622 1 0.4 0.733333 0.133333
623 1 0.466667 0.733333 0.133333
624 1 0.533333 0.733333 0.133333
625 1 0.6 0.733333 0.133333
626 1 0.666667 0.733333 0.133333
627 1 0.733333 0.733333 0.133333
628 1 0.8 0.733333 0.133333
629 1 0.866667 0.733333 0.133333
630 1 0.933333 0.733333 0.133333
631 1 0 0.8 0.133333
632 1 0.0666667 0.8 0.133333
633 1 0.133333 0.8 0.133333
634 1 0.2 0.8 0.133333
635 1 0.266667 0.8 0.133333
636 1 0.333333 0.8 0.133333
637 1 0.4 0.8 0.133333
638 1 0.466667 0.8 0.133333
639 1 0.533333 0.8 0.133333
640 1 0.6 0.8 0.133333
641 1 0.666667 0.8 0.133333
642 1 0.733333 0.8 0.133333
643 1 0.8 0.8 0.133333
644 1 0.866667 0.8 0.133333
645 1 0.933333 0.8 0.133333
646 1 0 0.866667 0.133333
647 1 0.0666667 0.866667 0.133333
648 1 0.133333 0.866667 0.133333
649 1 0.2 0.866667 0.133333
650 1 0.266667 0.866667 0.133333
651 1 0.333333 0.866667 0.133333
652 1 0.4 0.866667 0.133333
653 1 0.466667 0.866667 0.133333
654 1 0.533333 0.866667 0.133333
655 1 0.6 0.866667 0.133333
656 1 0.666667 0.866667 0.133333
657 1 0.733333 0.866667 0.133333
658 1 0.8 0.866667 0.133333
659 1 0.866667 0.866667 0.133333
660 1 0.933333 0.866667 0.133333
661 1 0 0.933333 0.133333
662 1 0.0666667 0.933333 0.133333
663 1 0.133333 0.933333 0.133333
664 1 0.2 0.933333 0.133333
665 1 0.266667 0.933333 0.133333
666 1 0.333333 0.933333 0.133333
667 1 0.4 0.933333 0.133333
668 1 0.466667 0.933333 0.133333
669 1 0.533333 0.933333 0.133333
670 1 0.6 0.933333 0.133333
671 1 0.666667 0.933333 0.133333
672 1 0.733333 0.933333 0.133333
673 1 0.8 0.933333 0.133333
674 1 0.866667 0.933333 0.133333
675 1 0.933333 0.933333 0.133333
676 1 0 0 0.2
677 1 0.0666667 0 0.2
678 1 0.133333 0 0.2
679 1 0.2 0 0.2
680 1 0.266667 0 0.2
681 1 0.333333 0 0.2
682 1 0.4 0 0.2
683 1 0.466667 0 0.2
684 1 0.533333 0 0.2
685 1 0.6 0 0.2
686 1 0.666667 0 0.2
687 1 0.733333 0 0.2
688 1 0.8 0 0.2
689 1 0.866667 0 0.2
690 1 0.933333 0 0.2
691 1 0 0.0666667 0.2
692 1 0.0666667 0.0666667 0.2
693 1 0.133333 0.0666667 0.2
694 1 0.2 0.0666667 0.2
695 1 0.266667 0.0666667 0.2
696 1 0.333333 0.0666667 0.2
697 1 0.4 0.0666667 0.2
698 1 0.466667 0.0666667 0.2
699 1 0.533333 0.0666667 0.2
700 1 0.6 0.0666667 0.2
701 1 0.666667 0.0666667 0.2
702 1 0.733333 0.0666667 0.2
703 1 0.8 0.0666667 0.2
704 1 0.866667 0.0666667 0.2
705 1 0.933333 0.0666667 0.2
706 1 0 0.133333 0.2
707 1 0.0666667 0.133333 0.2
708 1 0.133333 0.133333 0.2
709 1 0.2 0.133333 0.2
710 1 0.266667 0.133333 0.2
711 1 0.333333 0.133333 0.2
712 1 0.4 0.133333 0.2
713 1 0.466667 0.133333 0.2
714 1 0.533333 0.133333 0.2
715 1 0.6 0.133333 0.2
716 1 0.666667 0.133333 0.2
717 1 0.733333 0.133333 0.2
718 1 0.8 0.133333 0.2
719 1 0.866667 0.133333 0.2
720 1 0.933333 0.133333 0.2
721 1 0 0.2 0.2
722 1 0.0666667 0.2 0.2
723 1 0.133333 0.2 0.2
724 1 0.2 0.2 0.2
725 1 0.266667 0.2 0.2
726 1 0.333333 0.2 0.2
727 1 0.4 0.2 0.2
728 1 0.466667 0.2 0.2
729 1 0.533333 0.2 0.2
730 1 0.6 0.2 0.2
731 1 0.666667 0.2 0.2
732 1 0.733333 0.2 0.2
733 1 0.8 0.2 0.2
734 1 0.866667 0.2 0.2
735 1 0.933333 0.2 0.2
736 1 0 0.266667 0.2
737 1 0.0666667 0.266667 0.2
738 1 0.133333 0.266667 0.2
739 1 0.2 0.266667 0.2
740 1 0.266667 0.266667 0.2
741 1 0.333333 0.266667 0.2
742 1 0.4 0.266667 0.2
743 1 0.466667 0.266667 0.2
744 1 0.533333 0.266667 0.2
745 1 0.6 0.266667 0.2
746 1 0.666667 0.266667 0.2
747 1 0.733333 0.266667 0.2
748 1 0.8 0.266667 0.2
749 1 0.866667 0.266667 0.2
750 1 0.933333 0.266667 0.2
751 1 0 0.333333 0.2
752 1 0.0666667 0.333333 0.2
753 1 0.133333 0.333333 0.2
754 1 0.2 0.333333 0.2
755 1 0.266667 0.333333 0.2
756 1 0.333333 0.333333 0.2
757 1 0.4 0.333333 0.2
758 1 0.466667 0.333333 0.2
759 1 0.533333 0.333333 0.2
760 1 0.6 0.333333 0.2
761 1 0.666667 0.333333 0.2
762 1 0.733333 0.333333 0.2
763 1 0.8 0.333333 0.2
764 1 0.866667 0.333333 0.2
765 1 0.933333 0.333333 0.2
766 1 0 0.4 0.2
767 1 0.0666667 0.4 0.2
768 1 0.133333 0.4 0.2
769 1 0.2 0.4 0.2
770 1 0.266667 0.4 0.2
771 1 0.333333 0.4 0.2
772 1 0.4 0.4 0.2
773 1 0.466667 0.4 0.2
774 1 0.533333 0.4 0.2
775 1 0.6 0.4 0.2
776 1 0.666667 0.4 0.2
777 1 0.733333 0.4 0.2
778 1 0.8 0.4 0.2
779 1 0.866667 0.4 0.2
780 1 0.933333 0.4 0.2
781 1 0 0.466667 0.2
782 1 0.0666667 0.466667 0.2
783 1 0.133333 0.466667 0.2
784 1 0.2 0.466667 0.2
785 1 0.266667 0.466667 0.2
786 1 0.333333 0.466667 0.2
787 1 0.4 0.466667 0.2
788 1 0.466667 0.466667 0.2
789 1 0.533333 0.466667 0.2
790 1 0.6 0.466667 0.2
791 1 0.666667 0.466667 0.2
792 1 0.733333 0.466667 0.2
793 1 0.8 0.466667 0.2
794 1 0.866667 0.466667 0.2
795 1 0.933333 0.466667 0.2
796 1 0 0.533333 0.2
797 1 0.0666667 0.533333 0.2
798 1 0.133333 0.533333 0.2
799 1 0.2 0.533333 0.2
800 1 0.266667 0.533333 0.2
801 1 0.333333 0.533333 0.2
802 1 0.4 0.533333 0.2
803 1 0.466667 0.533333 0.2
804 1 0.533333 0.533333 0.2
805 1 0.6 0.533333 0.2
806 1 0.666667 0.533333 0.2
807 1 0.733333 0.533333 0.2
808 1 0.8 0.533333 0.2
809 1 0.866667 0.533333 0.2
810 1 0.933333 0.533333 0.2
811 1 0 0.6 0.2
812 1 0.0666667 0.6 0.2
813 1 0.133333 0.6 0.2
814 1 0.2 0.6 0.2
815 1 0.266667 0.6 0.2
816 1 0.333333 0.6 0.2
817 1 0.4 0.6 0.2
818 1 0.466667 0.6 0.2
819 1 0.533333 0.6 0.2
820 1 0.6 0.6 0.2
821 1 0.666667 0.6 0.2
822 1 0.733333 0.6 0.2
823 1 0.8 0.6 0.2
824 1 0.866667 0.6 0.2
825 1 0.933333 0.6 0.2
826 1 0 0.666667 0.2
827 1 0.0666667 0.666667 0.2
828 1 0.133333 0.666667 0.2
829 1 0.2 0.666667 0.2
830 1 0.266667 0.666667 0.2
831 1 0.333333 0.666667 0.2
832 1 0.4 0.666667 0.2
833 1 0.466667 0.666667 0.2
834 1 0.533333 0.666667 0.2
835 1 0.6 0.666667 0.2
836 1 0.666667 0.666667 0.2
837 1 0.733333 0.666667 0.2
838 1 0.8 0.666667 0.2
839 1 0.866667 0.666667 0.2
840 1 0.933333 0.666667 0.2
841 1 0 0.733333 0.2
842 1 0.0666667 0.733333 0.2
843 1 0.133333 0.733333 0.2
844 1 0.2 0.733333 0.2
845 1 0.266667 0.733333 0.2
846 1 0.333333 0.733333 0.2
847 1 0.4 0.733333 0.2
848 1 0.466667 0.733333 0.2
849 1 0.533333 0.733333 0.2
850 1 0.6 0.733333 0.2
851 1 0.666667 0.733333 0.2
852 1 0.733333 0.733333 0.2
853 1 0.8 0.733333 0.2
854 1 0.866667 0.733333 0.2
855 1 0.933333 0.733333 0.2
856 1 0 0.8 0.2
857 1 0.0666667 0.8 0.2
858 1 0.133333 0.8 0.2
859 1 0.2 0.8 0.2
860 1 0.266667 0.8 0.2
861 1 0.333333 0.8 0.2
862 1 0.4 0.8 0.2
863 1 0.466667 0.8 0.2
864 1 0.533333 0.8 0.2
865 1 0.6 0.8 0.2
866 1 0.666667 0.8 0.2
867 1 0.733333 0.8 0.2
868 1 0.8 0.8 0.2
869 1 0.866667 0.8 0.2
870 1 0.933333 0.8 0.2
871 1 0 0.866667 0.2
872 1 0.0666667 0.866667 0.2
873 1 0.133333 0.866667 0.2
874 1 0.2 0.866667 0.2
875 1 0.266667 0.866667 0.2
876 1 0.333333 0.866667 0.2
877 1 0.4 0.866667 0.2
878 1 0.466667 0.866667 0.2
879 1 0.533333 0.866667 0.2
880 1 0.6 0.866667 0.2
881 1 0.666667 0.866667 0.2
882 1 0.733333 0.866667 0.2
883 1 0.8 0.866667 0.2
884 1 0.866667 0.866667 0.2
885 1 0.933333 0.866667 0.2
886 1 0 0.933333 0.2
887 1 0.0666667 0.933333 0.2
888 1 0.133333 0.933333 0.2
889 1 0.2 0.933333 0.2
890 1 0.266667 0.933333 0.2
891 1 0.333333 0.933333 0.2
892 1 0.4 0.933333 0.2
893 1 0.466667 0.933333 0.2
894 1 0.533333 0.933333 0.2
895 1 0.6 0.933333 0.2
896 1 0.666667 0.933333 0.2
897 1 0.733333 0.933333 0.2
898 1 0.8 0.933333 0.2
899 1 0.866667 0.933333 0.2
900 1 0.933333 0.933333 0.2
901 1 0 0 0.266667
902 1 0.0666667 0 0.266667
903 1 0.133333 0 0.266667
904 1 0.2 0 0.266667
905 1 0.266667 0 0.266667
906 1 0.333333 0 0.266667
907 1 0.4 0 0.266667
908 1 0.466667 0 0.266667
909 1 0.533333 0 0.266667
910 1 0.6 0 0.266667
911 1 0.666667 0 0.266667
912 1 0.733333 0 0.266667
913 1 0.8 0 0.266667
914 1 0.866667 0 0.266667
915 1 0.933333 0 0.266667
916 1 0 0.0666667 0.266667
917 1 0.0666667 0.0666667 0.266667
918 1 0.133333 0.0666667 0.266667
919 1 0.2 0.0666667 0.266667
920 1 0.266667 0.0666667 0.266667
921 1 0.333333 0.0666667 0.266667
922 1 0.4 0.0666667 0.266667
923 1 0.466667 0.0666667 0.266667
924 1 0.533333 0.0666667 0.266667
925 1 0.6 0.0666667 0.266667
926 1 0.666667 0.0666667 0.266667
927 1 0.733333 0.0666667 0.266667
928 1 0.8 0.0666667 0.266667
929 1 0.866667 0.0666667 0.266667
930 1 0.933333 0.0666667 0.266667
931 1 0 0.133333 0.266667
932 1 0.0666667 0.133333 0.266667
933 1 0.133333 0.133333 0.266667
934 1 0.2 0.133333 0.266667
935 1 0.266667 0.133333 0.266667
936 1 0.333333 0.133333 0.266667
937 1 0.4 0.133333 0.266667
938 1 0.466667 0.133333 0.266667
939 1 0.533333 0.133333 0.266667
940 1 0.6 0.133333 0.266667
941 1 0.666667 0.133333 0.266667
942 1 0.733333 0.133333 0.266667
943 1 0.8 0.133333 0.266667
944 1 0.866667 0.133333 0.266667
945 1 0.933333 0.133333 0.266667
946 1 0 0.2 0.266667
947 1 0.0666667 0.2 0.266667
948 1 0.133333 0.2 0.266667
949 1 0.2 0.2 0.266667
950 1 0.266667 0.2 0.266667
951 1 0.333333 0.2 0.266667
952 1 0.4 0.2 0.266667
953 1 0.466667 0.2 0.266667
954 1 0.533333 0.2 0.266667
955 1 0.6 0.2 0.266667
956 1 0.666667 0.2 0.266667
957 1 0.733333 0.2 0.266667
958 1 0.8 0.2 0.266667
959 1 0.866667 0.2 0.266667
960 1 0.933333 0.2 0.266667
961 1 0 0.266667 0.266667
962 1 0.0666667 0.266667 0.266667
963 1 0.133333 0.266667 0.266667
964 1 0.2 0.266667 0.266667
965 1 0.266667 0.266667 0.266667
966 1 0.333333 0.266667 0.266667
967 1 0.4 0.266667 0.266667
968 1 0.466667 0.266667 0.266667
969 1 0.533333 0.266667 0.266667
970 1 0.6 0.266667 0.266667
971 1 0.666667 0.266667 0.266667
972 1 0.733333 0.266667 0.266667
973 1 0.8 0.266667 0.266667
974 1 0.866667 0.266667 0.266667
975 1 0.933333 0.266667 0.266667
976 1 0 0.333333 0.266667
977 1 0.0666667 0.333333 0.266667
978 1 0.133333 0.333333 0.266667
979 1 0.2 0.333333 0.266667
980 1 0.266667 0.333333 0.266667
981 1 0.333333 0.333333 0.266667
982 1 0.4 0.333333 0.266667
983 1 0.466667 0.333333 0.266667
984 1 0.533333 0.333333 0.266667
985 1 0.6 0.333333 0.266667
986 1 0.666667 0.333333 0.266667
987 1 0.733333 0.333333 0.266667
988 1 0.8 0.333333 0.266667
989 1 0.866667 0.333333 0.266667
990 1 0.933333 0.333333 0.266667
991 1 0 0.4 0.266667
992 1 0.0666667 0.4 0.266667
993 1 0.133333 0.4 0.266667
994 1 0.2 0.4 0.266667
995 1 0.266667 0.4 0.266667
996 1 0.333333 0.4 0.266667
997 1 0.4 0.4 0.266667
998 1 0.466667 0.4 0.266667
999 1 0.533333 0.4 0.266667
1000 1 0.6 0.4 0.266667
1001 1 0.666667 0.4 0.266667
1002 1 0.733333 0.4 0.266667
1003 1 0.8 0.4 0.266667
1004 1 0.866667 0.4 0.266667
1005 1 0.933333 0.4 0.266667
1006 1 0 0.466667 0.266667
1007 1 0.0666667 0.466667 0.266667
1008 1 0.133333 0.466667 0.266667
1009 1 0.2 0.466667 0.266667
1010 1 0.266667 0.466667 0.266667
1011 1 0.333333 0.466667 0.266667
1012 1 0.4 0.466667 0.266667
1013 1 0.466667 0.466667 0.266667
1014 1 0.533333 0.466667 0.266667
1015 1 0.6 0.466667 0.266667
1016 1 0.666667 0.466667 0.266667
1017 1 0.733333 0.466667 0.266667
1018 1 0.8 0.466667 0.266667
1019 1 0.866667 0.466667 0.266667
1020 1 0.933333 0.466667 0.266667
1021 1 0 0.533333 0.266667
1022 1 0.0666667 0.533333 0.266667
1023 1 0.133333 0.533333 0.266667
1024 1 0.2 0.533333 0.266667
1025 1 0.266667 0.533333 0.266667
1026 1 0.333333 0.533333 0.266667
1027 1 0.4 0.533333 0.266667
1028 1 0.466667 0.533333 0.266667
1029 1 0.533333 0.533333 0.266667
1030 1 0.6 0.533333 0.266667
1031 1 0.666667 0.533333 0.266667
1032 1 0.733333 0.533333 0.266667
1033 1 0.8 0.533333 0.266667
1034 1 0.866667 0.533333 0.266667
1035 1 0.933333 0.533333 0.266667
1036 1 0 0.6 0.266667
1037 1 0.0666667 0.6 0.266667
1038 1 0.133333 0.6 0.266667
1039 1 0.2 0.6 0.266667
1040 1 0.266667 0.6 0.266667
1041 1 0.333333 0.6 0.266667
1042 1 0.4 0.6 0.266667
1043 1 0.466667 0.6 0.266667
1044 1 0.533333 0.6 0.266667
1045 1 0.6 0.6 0.266667
1046 1 0.666667 0.6 0.266667
1047 1 0.733333 0.6 0.266667
1048 1 0.8 0.6 0.266667
1049 1 0.866667 0.6 0.266667
1050 1 0.933333 0.6 0.266667
1051 1 0 0.666667 0.266667
1052 1 0.0666667 0.666667 0.266667
1053 1 0.133333 0.666667 0.266667
1054 1 0.2 0.666667 0.266667
1055 1 0.266667 0.666667 0.266667
1056 1 0.333333 0.666667 0.266667
1057 1 0.4 0.666667 0.266667
1058 1 0.466667 0.666667 0.266667
1059 1 0.533333 0.666667 0.266667
1060 1 0.6 0.666667 0.266667
1061 1 0.666667 0.666667 0.266667
1062 1 0.733333 0.666667 0.266667
1063 1 0.8 0.666667 0.266667
1064 1 0.866667 0.666667 0.266667
1065 1 0.933333 0.666667 0.266667
1066 1 0 0.733333 0.266667
1067 1 0.0666667 0.733333 0.266667
1068 1 0.133333 0.733333 0.266667
1069 1 0.2 0.733333 0.266667
1070 1 0.266667 0.733333 0.266667
1071 1 0.333333 0.733333 0.266667
1072 1 0.4 0.733333 0.266667
1073 1 0.466667 0.733333 0.266667
1074 1 0.533333 0.733333 0.266667
1075 1 0.6 0.733333 0.266667
1076 1 0.666667 0.733333 0.266667
1077 1 0.733333 0.733333 0.266667
1078 1 0.8 0.733333 0.266667
1079 1 0.866667 0.733333 0.266667
1080 1 0.933333 0.733333 0.266667
1081 1 0 0.8 0.266667
1082 1 0.0666667 0.8 0.266667
1083 1 0.133333 0.8 0.266667
1084 1 0.2 0.8 0.266667
1085 1 0.266667 0.8 0.266667
1086 1 0.333333 0.8 0.266667
1087 1 0.4 0.8 0.266667
1088 1 0.466667 0.8 0.266667
1089 1 0.533333 0.8 0.266667
1090 1 0.6 0.8 0.266667
1091 1 0.666667 0.8 0.266667
1092 1 0.733333 0.8 0.266667
1093 1 0.8 0.8 0.266667