ITEM: TIMESTEP
0
ITEM: NUMBER OF ATOMS
7
ITEM: BOX BOUNDS pp pp pp
0.0000000000000000e+00 1.4000000000000000e+01
-4.0000000000000000e+00 0.0000000000000000e+00
-5.0000000000000000e+00 5.0000000000000000e+00
ITEM: ATOMS id type x y z quatw quati quatj quatk shapex shapey shapez
1 0 3.67207 -3.61948 -3 1 0 0 0 0.5 0.5 1
2 0 4.85923 -3.44717 -2 0.923785 0.382911 0 0 0.5 1 0.5
3 0 5.12598 -3.23867 -1 0.923785 0 0.382911 0 1 0.5 0.5
4 0 6.67486 -3.03396 0 0.923785 0 0 0.382911 0.5 0.5 1
5 1 7.26597 -2.91726 1 0 0.707107 0 0.707107 0.5 1 0.5
6 1 8.49911 -2.65673 2 0.707107 0 0 0.707107 0.5 0.5 1
7 1 9.30317 -2.2988 3 0.707107 0 0.707107 0 0.5 1 0.5
ITEM: TIMESTEP
500
ITEM: NUMBER OF ATOMS
7
ITEM: BOX BOUNDS pp pp pp
0.0000000000000000e+00 1.4000000000000000e+01
-4.0000000000000000e+00 0.0000000000000000e+00
-5.0000000000000000e+00 5.0000000000000000e+00
ITEM: ATOMS id type x y z quatw quati quatj quatk shapex shapey shapez
1 0 3.67207 -3.61948 2 1 0 0 0 0.5 0.5 1
2 0 4.85326 -3.45183 2.97763 0.923785 0.382911 0 0 0.5 1 0.5
3 0 5.13195 -3.23401 4.02237 0.923785 0 0.382911 0 1 0.5 0.5
4 0 6.67486 -3.03396 5 0.923785 0 0 0.382911 0.5 0.5 1
5 1 7.26597 -2.91726 -4 0 0.707107 0 0.707107 0.5 1 0.5
6 1 8.49911 -2.65673 -3 0.707107 0 0 0.707107 0.5 0.5 1
7 1 9.30317 -2.2988 -2 0.707107 0 0.707107 0 0.5 1 0.5
ITEM: TIMESTEP
1000
ITEM: NUMBER OF ATOMS
7
ITEM: BOX BOUNDS pp pp pp
0.0000000000000000e+00 1.4000000000000000e+01
-4.0000000000000000e+00 0.0000000000000000e+00
-5.0000000000000000e+00 5.0000000000000000e+00
ITEM: ATOMS id type x y z quatw quati quatj quatk shapex shapey shapez
1 0 3.67207 -3.61948 -3 1 0 0 0 0.5 0.5 1
2 0 4.84325 -3.45966 -2.05991 0.923785 0.382911 0 0 0.5 1 0.5
3 0 5.14196 -3.22618 -0.940094 0.923785 0 0.382911 0 1 0.5 0.5
4 0 6.67486 -3.03396 -1.2448e-13 0.923785 0 0 0.382911 0.5 0.5 1
5 1 7.26597 -2.91726 1 0 0.707107 0 0.707107 0.5 1 0.5
6 1 8.49911 -2.65673 2 0.707107 0 0 0.707107 0.5 0.5 1
7 1 9.30317 -2.2988 3 0.707107 0 0.707107 0 0.5 1 0.5
ITEM: TIMESTEP
1500
ITEM: NUMBER OF ATOMS
7
ITEM: BOX BOUNDS pp pp pp
0.0000000000000000e+00 1.4000000000000000e+01
-4.0000000000000000e+00 0.0000000000000000e+00
-5.0000000000000000e+00 5.0000000000000000e+00
ITEM: ATOMS id type x y z quatw quati quatj quatk shapex shapey shapez
1 0 3.67207 -3.61948 2 1 0 0 0 0.5 0.5 1
2 0 4.83321 -3.46751 2.90246 0.923785 0.382911 0 0 0.5 1 0.5
3 0 5.152 -3.21833 4.09754 0.923785 0 0.382911 0 1 0.5 0.5
4 0 6.67486 -3.03396 5 0.923785 0 0 0.382911 0.5 0.5 1
5 1 7.26597 -2.91726 -4 0 0.707107 0 0.707107 0.5 1 0.5
6 1 8.49911 -2.65673 -3 0.707107 0 0 0.707107 0.5 0.5 1
7 1 9.30317 -2.2988 -2 0.707107 0 0.707107 0 0.5 1 0.5
ITEM: TIMESTEP
2000
ITEM: NUMBER OF ATOMS
7
ITEM: BOX BOUNDS pp pp pp
0.0000000000000000e+00 1.4000000000000000e+01
-4.0000000000000000e+00 0.0000000000000000e+00
-5.0000000000000000e+00 5.0000000000000000e+00
ITEM: ATOMS id type x y z quatw quati quatj quatk shapex shapey shapez
1 0 3.67207 -3.61948 -3 1 0 0 0 0.5 0.5 1
2 0 4.82317 -3.47535 -2.13518 0.923785 0.382911 0 0 0.5 1 0.5
3 0 5.16204 -3.21048 -0.864823 0.923785 0 0.382911 0 1 0.5 0.5
4 0 6.67486 -3.03396 -2.48825e-13 0.923785 0 0 0.382911 0.5 0.5 1
5 1 7.26597 -2.91726 1 0 0.707107 0 0.707107 0.5 1 0.5
6 1 8.49911 -2.65673 2 0.707107 0 0 0.707107 0.5 0.5 1
7 1 9.30317 -2.2988 3 0.707107 0 0.707107 0 0.5 1 0.5
ITEM: TIMESTEP
2500
ITEM: NUMBER OF ATOMS
7
ITEM: BOX BOUNDS pp pp pp
0.0000000000000000e+00 1.4000000000000000e+01
-4.0000000000000000e+00 0.0000000000000000e+00
-5.0000000000000000e+00 5.0000000000000000e+00
ITEM: ATOMS id type x y z quatw quati quatj quatk shapex shapey shapez
1 0 3.67207 -3.61948 2 1 0 0 0 0.5 0.5 1
2 0 4.81313 -3.4832 2.82719 0.923785 0.382911 0 0 0.5 1 0.5
3 0 5.17208 -3.20264 4.17281 0.923785 0 0.382911 0 1 0.5 0.5
4 0 6.67486 -3.03396 5 0.923785 0 0 0.382911 0.5 0.5 1
5 1 7.26597 -2.91726 -4 0 0.707107 0 0.707107 0.5 1 0.5
6 1 8.49911 -2.65673 -3 0.707107 0 0 0.707107 0.5 0.5 1
7 1 9.30317 -2.2988 -2 0.707107 0 0.707107 0 0.5 1 0.5
ITEM: TIMESTEP
3000
ITEM: NUMBER OF ATOMS
7
ITEM: BOX BOUNDS pp pp pp
0.0000000000000000e+00 1.4000000000000000e+01
-4.0000000000000000e+00 0.0000000000000000e+00
-5.0000000000000000e+00 5.0000000000000000e+00
ITEM: ATOMS id type x y z quatw quati quatj quatk shapex shapey shapez
1 0 3.67207 -3.61948 -3 1 0 0 0 0.5 0.5 1
2 0 4.80309 -3.49105 -2.21045 0.923785 0.382911 0 0 0.5 1 0.5
3 0 5.18212 -3.19479 -0.789553 0.923785 0 0.382911 0 1 0.5 0.5
4 0 6.67486 -3.03396 -3.7317e-13 0.923785 0 0 0.382911 0.5 0.5 1
5 1 7.26597 -2.91726 1 0 0.707107 0 0.707107 0.5 1 0.5
6 1 8.49911 -2.65673 2 0.707107 0 0 0.707107 0.5 0.5 1
7 1 9.30317 -2.2988 3 0.707107 0 0.707107 0 0.5 1 0.5
ITEM: TIMESTEP
3500
ITEM: NUMBER OF ATOMS
7
ITEM: BOX BOUNDS pp pp pp
0.0000000000000000e+00 1.4000000000000000e+01
-4.0000000000000000e+00 0.0000000000000000e+00
-5.0000000000000000e+00 5.0000000000000000e+00
ITEM: ATOMS id type x y z quatw quati quatj quatk shapex shapey shapez
1 0 3.67207 -3.61948 2 1 0 0 0 0.5 0.5 1
2 0 4.79305 -3.49889 2.75192 0.923785 0.382911 0 0 0.5 1 0.5
3 0 5.19216 -3.18694 4.24808 0.923785 0 0.382911 0 1 0.5 0.5
4 0 6.67486 -3.03396 5 0.923785 0 0 0.382911 0.5 0.5 1
5 1 7.26597 -2.91726 -4 0 0.707107 0 0.707107 0.5 1 0.5
6 1 8.49911 -2.65673 -3 0.707107 0 0 0.707107 0.5 0.5 1
7 1 9.30317 -2.2988 -2 0.707107 0 0.707107 0 0.5 1 0.5
ITEM: TIMESTEP
4000
ITEM: NUMBER OF ATOMS
7
ITEM: BOX BOUNDS pp pp pp
0.0000000000000000e+00 1.4000000000000000e+01
-4.0000000000000000e+00 0.0000000000000000e+00
-5.0000000000000000e+00 5.0000000000000000e+00
ITEM: ATOMS id type x y z quatw quati quatj quatk shapex shapey shapez
1 0 3.67207 -3.61948 -3 1 0 0 0 0.5 0.5 1
2 0 4.78301 -3.50674 -2.28572 0.923785 0.382911 0 0 0.5 1 0.5
3 0 5.2022 -3.1791 -0.714282 0.923785 0 0.382911 0 1 0.5 0.5
4 0 6.67486 -3.03396 -4.97515e-13 0.923785 0 0 0.382911 0.5 0.5 1
5 1 7.26597 -2.91726 1 0 0.707107 0 0.707107 0.5 1 0.5
6 1 8.49911 -2.65673 2 0.707107 0 0 0.707107 0.5 0.5 1
7 1 9.30317 -2.2988 3 0.707107 0 0.707107 0 0.5 1 0.5
ITEM: TIMESTEP
4500
ITEM: NUMBER OF ATOMS
7
ITEM: BOX BOUNDS pp pp pp
0.0000000000000000e+00 1.4000000000000000e+01
-4.0000000000000000e+00 0.0000000000000000e+00
-5.0000000000000000e+00 5.0000000000000000e+00
ITEM: ATOMS id type x y z quatw quati quatj quatk shapex shapey shapez
1 0 3.67207 -3.61948 2 1 0 0 0 0.5 0.5 1
2 0 4.77297 -3.51459 2.67665 0.923785 0.382911 0 0 0.5 1 0.5
3 0 5.21224 -3.17125 4.32335 0.923785 0 0.382911 0 1 0.5 0.5
4 0 6.67486 -3.03396 5 0.923785 0 0 0.382911 0.5 0.5 1
5 1 7.26597 -2.91726 -4 0 0.707107 0 0.707107 0.5 1 0.5
6 1 8.49911 -2.65673 -3 0.707107 0 0 0.707107 0.5 0.5 1
7 1 9.30317 -2.2988 -2 0.707107 0 0.707107 0 0.5 1 0.5
ITEM: TIMESTEP
5000
ITEM: NUMBER OF ATOMS
7
ITEM: BOX BOUNDS pp pp pp
0.0000000000000000e+00 1.4000000000000000e+01
-4.0000000000000000e+00 0.0000000000000000e+00
-5.0000000000000000e+00 5.0000000000000000e+00
ITEM: ATOMS id type x y z quatw quati quatj quatk shapex shapey shapez
1 0 3.67207 -3.61948 -3 1 0 0 0 0.5 0.5 1
2 0 4.76293 -3.52244 -2.36099 0.923785 0.382911 0 0 0.5 1 0.5
3 0 5.22228 -3.1634 -0.639011 0.923785 0 0.382911 0 1 0.5 0.5
4 0 6.67486 -3.03396 -6.2186e-13 0.923785 0 0 0.382911 0.5 0.5 1
5 1 7.26597 -2.91726 1 0 0.707107 0 0.707107 0.5 1 0.5
6 1 8.49911 -2.65673 2 0.707107 0 0 0.707107 0.5 0.5 1
7 1 9.30317 -2.2988 3 0.707107 0 0.707107 0 0.5 1 0.5
ITEM: TIMESTEP
5500
ITEM: NUMBER OF ATOMS
7
ITEM: BOX BOUNDS pp pp pp
0.0000000000000000e+00 1.4000000000000000e+01
-4.0000000000000000e+00 0.0000000000000000e+00
-5.0000000000000000e+00 5.0000000000000000e+00
ITEM: ATOMS id type x y z quatw quati quatj quatk shapex shapey shapez
1 0 3.67207 -3.61948 2 1 0 0 0 0.5 0.5 1
2 0 4.7529 -3.53028 2.60138 0.923785 0.382911 0 0 0.5 1 0.5
3 0 5.23231 -3.15556 4.39862 0.923785 0 0.382911 0 1 0.5 0.5
4 0 6.67486 -3.03396 5 0.923785 0 0 0.382911 0.5 0.5 1
5 1 7.26597 -2.91726 -4 0 0.707107 0 0.707107 0.5 1 0.5
6 1 8.49911 -2.65673 -3 0.707107 0 0 0.707107 0.5 0.5 1
7 1 9.30317 -2.2988 -2 0.707107 0 0.707107 0 0.5 1 0.5
ITEM: TIMESTEP
6000
ITEM: NUMBER OF ATOMS
7
ITEM: BOX BOUNDS pp pp pp
0.0000000000000000e+00 1.4000000000000000e+01
-4.0000000000000000e+00 0.0000000000000000e+00
-5.0000000000000000e+00 5.0000000000000000e+00
ITEM: ATOMS id type x y z quatw quati quatj quatk shapex shapey shapez
1 0 3.67207 -3.61948 -3 1 0 0 0 0.5 0.5 1
2 0 4.74286 -3.53813 -2.43626 0.923785 0.382911 0 0 0.5 1 0.5
3 0 5.24235 -3.14771 -0.563741 0.923785 0 0.382911 0 1 0.5 0.5
4 0 6.67486 -3.03396 -7.46205e-13 0.923785 0 0 0.382911 0.5 0.5 1
5 1 7.26597 -2.91726 1 0 0.707107 0 0.707107 0.5 1 0.5
6 1 8.49911 -2.65673 2 0.707107 0 0 0.707107 0.5 0.5 1
7 1 9.30317 -2.2988 3 0.707107 0 0.707107 0 0.5 1 0.5
ITEM: TIMESTEP
6500
ITEM: NUMBER OF ATOMS
7
ITEM: BOX BOUNDS pp pp pp
0.0000000000000000e+00 1.4000000000000000e+01
-4.0000000000000000e+00 0.0000000000000000e+00
-5.0000000000000000e+00 5.0000000000000000e+00
ITEM: ATOMS id type x y z quatw quati quatj quatk shapex shapey shapez
1 0 3.67207 -3.61948 2 1 0 0 0 0.5 0.5 1
2 0 4.73282 -3.54598 2.52611 0.923785 0.382911 0 0 0.5 1 0.5
3 0 5.25239 -3.13986 4.47389 0.923785 0 0.382911 0 1 0.5 0.5
4 0 6.67486 -3.03396 5 0.923785 0 0 0.382911 0.5 0.5 1
5 1 7.26597 -2.91726 -4 0 0.707107 0 0.707107 0.5 1 0.5
6 1 8.49911 -2.65673 -3 0.707107 0 0 0.707107 0.5 0.5 1
7 1 9.30317 -2.2988 -2 0.707107 0 0.707107 0 0.5 1 0.5
ITEM: TIMESTEP
7000
ITEM: NUMBER OF ATOMS
7
ITEM: BOX BOUNDS pp pp pp
0.0000000000000000e+00 1.4000000000000000e+01
-4.0000000000000000e+00 0.0000000000000000e+00
-5.0000000000000000e+00 5.0000000000000000e+00
ITEM: ATOMS id type x y z quatw quati quatj quatk shapex shapey shapez
1 0 3.67207 -3.61948 -3 1 0 0 0 0.5 0.5 1
2 0 4.72278 -3.55382 -2.51153 0.923785 0.382911 0 0 0.5 1 0.5
3 0 5.26243 -3.13201 -0.48847 0.923785 0 0.382911 0 1 0.5 0.5
4 0 6.67486 -3.03396 -8.7055e-13 0.923785 0 0 0.382911 0.5 0.5 1
5 1 7.26597 -2.91726 1 0 0.707107 0 0.707107 0.5 1 0.5
6 1 8.49911 -2.65673 2 0.707107 0 0 0.707107 0.5 0.5 1
7 1 9.30317 -2.2988 3 0.707107 0 0.707107 0 0.5 1 0.5
ITEM: TIMESTEP
7500
ITEM: NUMBER OF ATOMS
7
ITEM: BOX BOUNDS pp pp pp
0.0000000000000000e+00 1.4000000000000000e+01
-4.0000000000000000e+00 0.0000000000000000e+00
-5.0000000000000000e+00 5.0000000000000000e+00
ITEM: ATOMS id type x y z quatw quati quatj quatk shapex shapey shapez
1 0 3.67207 -3.61948 2 1 0 0 0 0.5 0.5 1
2 0 4.71274 -3.56167 2.45083 0.923785 0.382911 0 0 0.5 1 0.5
3 0 5.27247 -3.12417 4.54917 0.923785 0 0.382911 0 1 0.5 0.5
4 0 6.67486 -3.03396 5 0.923785 0 0 0.382911 0.5 0.5 1
5 1 7.26597 -2.91726 -4 0 0.707107 0 0.707107 0.5 1 0.5
6 1 8.49911 -2.65673 -3 0.707107 0 0 0.707107 0.5 0.5 1
7 1 9.30317 -2.2988 -2 0.707107 0 0.707107 0 0.5 1 0.5
ITEM: TIMESTEP
8000
ITEM: NUMBER OF ATOMS
7
ITEM: BOX BOUNDS pp pp pp
0.0000000000000000e+00 1.4000000000000000e+01
-4.0000000000000000e+00 0.0000000000000000e+00
-5.0000000000000000e+00 5.0000000000000000e+00
ITEM: ATOMS id type x y z quatw quati quatj quatk shapex shapey shapez
1 0 3.6719 -3.61948 -3.00007 1 0 0 0 0.5 0.5 1
2 0 4.70287 -3.56951 -2.58673 0.923785 0.382911 0 0 0.5 1 0.5
3 0 5.28251 -3.11632 -0.413199 0.923785 0 0.382911 0 1 0.5 0.5
4 0 6.67486 -3.03396 -9.94895e-13 0.923785 0 0 0.382911 0.5 0.5 1
5 1 7.26597 -2.91726 1 0 0.707107 0 0.707107 0.5 1 0.5
6 1 8.49911 -2.65673 2 0.707107 0 0 0.707107 0.5 0.5 1
7 1 9.30317 -2.2988 3 0.707107 0 0.707107 0 0.5 1 0.5
ITEM: TIMESTEP
8500
ITEM: NUMBER OF ATOMS
7
ITEM: BOX BOUNDS pp pp pp
0.0000000000000000e+00 1.4000000000000000e+01
-4.0000000000000000e+00 0.0000000000000000e+00
-5.0000000000000000e+00 5.0000000000000000e+00
ITEM: ATOMS id type x y z quatw quati quatj quatk shapex shapey shapez
1 0 3.66669 -3.61973 1.99789 1 0 0 0 0.5 0.5 1
2 0 4.69805 -3.57711 2.37768 0.923785 0.382911 0 0 0.5 1 0.5
3 0 5.29255 -3.10847 4.62444 0.923785 0 0.382911 0 1 0.5 0.5
4 0 6.67486 -3.03396 5 0.923785 0 0 0.382911 0.5 0.5 1
5 1 7.26597 -2.91726 -4 0 0.707107 0 0.707107 0.5 1 0.5
6 1 8.49911 -2.65673 -3 0.707107 0 0 0.707107 0.5 0.5 1
7 1 9.30317 -2.2988 -2 0.707107 0 0.707107 0 0.5 1 0.5
ITEM: TIMESTEP
9000
ITEM: NUMBER OF ATOMS
7
ITEM: BOX BOUNDS pp pp pp
0.0000000000000000e+00 1.4000000000000000e+01
-4.0000000000000000e+00 0.0000000000000000e+00
-5.0000000000000000e+00 5.0000000000000000e+00
ITEM: ATOMS id type x y z quatw quati quatj quatk shapex shapey shapez
1 0 3.6508 -3.62041 -3.00809 1 0 0 0 0.5 0.5 1
2 0 4.7039 -3.58428 -2.65398 0.923785 0.382911 0 0 0.5 1 0.5
3 0 5.30259 -3.10063 -0.337929 0.923785 0 0.382911 0 1 0.5 0.5
4 0 6.67486 -3.03396 -1.11924e-12 0.923785 0 0 0.382911 0.5 0.5 1
5 1 7.26597 -2.91726 1 0 0.707107 0 0.707107 0.5 1 0.5
6 1 8.49911 -2.65673 2 0.707107 0 0 0.707107 0.5 0.5 1
7 1 9.30317 -2.2988 3 0.707107 0 0.707107 0 0.5 1 0.5
ITEM: TIMESTEP
9500
ITEM: NUMBER OF ATOMS
7
ITEM: BOX BOUNDS pp pp pp
0.0000000000000000e+00 1.4000000000000000e+01
-4.0000000000000000e+00 0.0000000000000000e+00
-5.0000000000000000e+00 5.0000000000000000e+00
ITEM: ATOMS id type x y z quatw quati quatj quatk shapex shapey shapez
1 0 3.62969 -3.62128 1.98413 1 0 0 0 0.5 0.5 1
2 0 4.71497 -3.59125 2.31616 0.923785 0.382911 0 0 0.5 1 0.5
3 0 5.31263 -3.09278 4.69971 0.923785 0 0.382911 0 1 0.5 0.5
4 0 6.67486 -3.03396 5 0.923785 0 0 0.382911 0.5 0.5 1
5 1 7.26597 -2.91726 -4 0 0.707107 0 0.707107 0.5 1 0.5
6 1 8.49911 -2.65673 -3 0.707107 0 0 0.707107 0.5 0.5 1
7 1 9.30317 -2.2988 -2 0.707107 0 0.707107 0 0.5 1 0.5
ITEM: TIMESTEP
10000
ITEM: NUMBER OF ATOMS
7
ITEM: BOX BOUNDS pp pp pp
0.0000000000000000e+00 1.4000000000000000e+01
-4.0000000000000000e+00 0.0000000000000000e+00
-5.0000000000000000e+00 5.0000000000000000e+00
ITEM: ATOMS id type x y z quatw quati quatj quatk shapex shapey shapez
1 0 3.6084 -3.62216 -3.0237 1 0 0 0 0.5 0.5 1
2 0 4.72622 -3.59822 -2.71364 0.923785 0.382911 0 0 0.5 1 0.5
3 0 5.32267 -3.08493 -0.262658 0.923785 0 0.382911 0 1 0.5 0.5
4 0 6.67486 -3.03396 -1.24359e-12 0.923785 0 0 0.382911 0.5 0.5 1
5 1 7.26597 -2.91726 1 0 0.707107 0 0.707107 0.5 1 0.5
6 1 8.49911 -2.65673 2 0.707107 0 0 0.707107 0.5 0.5 1
7 1 9.30317 -2.2988 3 0.707107 0 0.707107 0 0.5 1 0.5
ITEM: TIMESTEP
10500
ITEM: NUMBER OF ATOMS
7
ITEM: BOX BOUNDS pp pp pp
0.0000000000000000e+00 1.4000000000000000e+01
-4.0000000000000000e+00 0.0000000000000000e+00
-5.0000000000000000e+00 5.0000000000000000e+00
ITEM: ATOMS id type x y z quatw quati quatj quatk shapex shapey shapez
1 0 3.5871 -3.62304 1.96846 1 0 0 0 0.5 0.5 1
2 0 4.73748 -3.60519 2.25656 0.923785 0.382911 0 0 0.5 1 0.5
3 0 5.33271 -3.07709 4.77498 0.923785 0 0.382911 0 1 0.5 0.5
4 0 6.67486 -3.03396 5 0.923785 0 0 0.382911 0.5 0.5 1
5 1 7.26597 -2.91726 -4 0 0.707107 0 0.707107 0.5 1 0.5
6 1 8.49911 -2.65673 -3 0.707107 0 0 0.707107 0.5 0.5 1
7 1 9.30317 -2.2988 -2 0.707107 0 0.707107 0 0.5 1 0.5
ITEM: TIMESTEP
11000
ITEM: NUMBER OF ATOMS
7
ITEM: BOX BOUNDS pp pp pp
0.0000000000000000e+00 1.4000000000000000e+01
-4.0000000000000000e+00 0.0000000000000000e+00
-5.0000000000000000e+00 5.0000000000000000e+00
ITEM: ATOMS id type x y z quatw quati quatj quatk shapex shapey shapez
1 0 3.56581 -3.62392 -3.03938 1 0 0 0 0.5 0.5 1
2 0 4.74873 -3.61215 -2.77323 0.923785 0.382911 0 0 0.5 1 0.5
3 0 5.34275 -3.06924 -0.187387 0.923785 0 0.382911 0 1 0.5 0.5
4 0 6.67486 -3.03396 -1.36793e-12 0.923785 0 0 0.382911 0.5 0.5 1
5 1 7.26597 -2.91726 1 0 0.707107 0 0.707107 0.5 1 0.5
6 1 8.49911 -2.65673 2 0.707107 0 0 0.707107 0.5 0.5 1
7 1 9.30317 -2.2988 3 0.707107 0 0.707107 0 0.5 1 0.5
ITEM: TIMESTEP
11500
ITEM: NUMBER OF ATOMS
7
ITEM: BOX BOUNDS pp pp pp
0.0000000000000000e+00 1.4000000000000000e+01
-4.0000000000000000e+00 0.0000000000000000e+00
-5.0000000000000000e+00 5.0000000000000000e+00
ITEM: ATOMS id type x y z quatw quati quatj quatk shapex shapey shapez
1 0 3.54451 -3.6248 1.95278 1 0 0 0 0.5 0.5 1
2 0 4.75999 -3.61912 2.19697 0.923785 0.382911 0 0 0.5 1 0.5
3 0 5.35279 -3.06139 4.85025 0.923785 0 0.382911 0 1 0.5 0.5
4 0 6.67486 -3.03396 5 0.923785 0 0 0.382911 0.5 0.5 1
5 1 7.26597 -2.91726 -4 0 0.707107 0 0.707107 0.5 1 0.5
6 1 8.49911 -2.65673 -3 0.707107 0 0 0.707107 0.5 0.5 1
7 1 9.30317 -2.2988 -2 0.707107 0 0.707107 0 0.5 1 0.5
ITEM: TIMESTEP
12000
ITEM: NUMBER OF ATOMS
7
ITEM: BOX BOUNDS pp pp pp
0.0000000000000000e+00 1.4000000000000000e+01
-4.0000000000000000e+00 0.0000000000000000e+00
-5.0000000000000000e+00 5.0000000000000000e+00
ITEM: ATOMS id type x y z quatw quati quatj quatk shapex shapey shapez
1 0 3.52322 -3.62568 -3.05505 1 0 0 0 0.5 0.5 1
2 0 4.77124 -3.62609 -2.83283 0.923785 0.382911 0 0 0.5 1 0.5
3 0 5.36283 -3.05354 -0.112117 0.923785 0 0.382911 0 1 0.5 0.5
4 0 6.67486 -3.03396 -1.49228e-12 0.923785 0 0 0.382911 0.5 0.5 1
5 1 7.26597 -2.91726 1 0 0.707107 0 0.707107 0.5 1 0.5
6 1 8.49911 -2.65673 2 0.707107 0 0 0.707107 0.5 0.5 1
7 1 9.30317 -2.2988 3 0.707107 0 0.707107 0 0.5 1 0.5
ITEM: TIMESTEP
12500
ITEM: NUMBER OF ATOMS
7
ITEM: BOX BOUNDS pp pp pp
0.0000000000000000e+00 1.4000000000000000e+01
-4.0000000000000000e+00 0.0000000000000000e+00
-5.0000000000000000e+00 5.0000000000000000e+00
ITEM: ATOMS id type x y z quatw quati quatj quatk shapex shapey shapez
1 0 3.50192 -3.62656 1.93711 1 0 0 0 0.5 0.5 1
2 0 4.7825 -3.63306 2.13737 0.923785 0.382911 0 0 0.5 1 0.5
3 0 5.37287 -3.0457 4.92552 0.923785 0 0.382911 0 1 0.5 0.5
4 0 6.67486 -3.03396 5 0.923785 0 0 0.382911 0.5 0.5 1
5 1 7.26597 -2.91726 -4 0 0.707107 0 0.707107 0.5 1 0.5
6 1 8.49911 -2.65673 -3 0.707107 0 0 0.707107 0.5 0.5 1
7 1 9.30317 -2.2988 -2 0.707107 0 0.707107 0 0.5 1 0.5
ITEM: TIMESTEP
13000
ITEM: NUMBER OF ATOMS
7
ITEM: BOX BOUNDS pp pp pp
0.0000000000000000e+00 1.4000000000000000e+01
-4.0000000000000000e+00 0.0000000000000000e+00
-5.0000000000000000e+00 5.0000000000000000e+00
ITEM: ATOMS id type x y z quatw quati quatj quatk shapex shapey shapez
1 0 3.48063 -3.62744 -3.07073 1 0 0 0 0.5 0.5 1
2 0 4.79375 -3.64003 -2.89242 0.923785 0.382911 0 0 0.5 1 0.5
3 0 5.3829 -3.03785 -0.0368459 0.923785 0 0.382911 0 1 0.5 0.5
4 0 6.67486 -3.03396 -1.61662e-12 0.923785 0 0 0.382911 0.5 0.5 1
5 1 7.26597 -2.91726 1 0 0.707107 0 0.707107 0.5 1 0.5
6 1 8.49911 -2.65673 2 0.707107 0 0 0.707107 0.5 0.5 1
7 1 9.30317 -2.2988 3 0.707107 0 0.707107 0 0.5 1 0.5
ITEM: TIMESTEP
13500
ITEM: NUMBER OF ATOMS
7
ITEM: BOX BOUNDS pp pp pp
0.0000000000000000e+00 1.4000000000000000e+01
-4.0000000000000000e+00 0.0000000000000000e+00
-5.0000000000000000e+00 5.0000000000000000e+00
ITEM: ATOMS id type x y z quatw quati quatj quatk shapex shapey shapez
1 0 3.45933 -3.62832 1.92143 1 0 0 0 0.5 0.5 1
2 0 4.80501 -3.64699 2.07778 0.923785 0.382911 0 0 0.5 1 0.5
3 0 5.39294 -3.03 -4.99921 0.923785 0 0.382911 0 1 0.5 0.5
4 0 6.67486 -3.03396 5 0.923785 0 0 0.382911 0.5 0.5 1
5 1 7.26597 -2.91726 -4 0 0.707107 0 0.707107 0.5 1 0.5
6 1 8.49911 -2.65673 -3 0.707107 0 0 0.707107 0.5 0.5 1
7 1 9.30317 -2.2988 -2 0.707107 0 0.707107 0 0.5 1 0.5
ITEM: TIMESTEP
14000
ITEM: NUMBER OF ATOMS
7
ITEM: BOX BOUNDS pp pp pp
0.0000000000000000e+00 1.4000000000000000e+01
-4.0000000000000000e+00 0.0000000000000000e+00
-5.0000000000000000e+00 5.0000000000000000e+00
ITEM: ATOMS id type x y z quatw quati quatj quatk shapex shapey shapez
1 0 3.43804 -3.62919 -3.08641 1 0 0 0 0.5 0.5 1
2 0 4.81626 -3.65396 -2.95202 0.923785 0.382911 0 0 0.5 1 0.5
3 0 5.40298 -3.02216 0.0384248 0.923785 0 0.382911 0 1 0.5 0.5
4 0 6.67486 -3.03396 -1.74097e-12 0.923785 0 0 0.382911 0.5 0.5 1
5 1 7.26597 -2.91726 1 0 0.707107 0 0.707107 0.5 1 0.5
6 1 8.49911 -2.65673 2 0.707107 0 0 0.707107 0.5 0.5 1
7 1 9.30317 -2.2988 3 0.707107 0 0.707107 0 0.5 1 0.5
ITEM: TIMESTEP
14500
ITEM: NUMBER OF ATOMS
7
ITEM: BOX BOUNDS pp pp pp
0.0000000000000000e+00 1.4000000000000000e+01
-4.0000000000000000e+00 0.0000000000000000e+00
-5.0000000000000000e+00 5.0000000000000000e+00
ITEM: ATOMS id type x y z quatw quati quatj quatk shapex shapey shapez
1 0 3.41675 -3.63007 1.90576 1 0 0 0 0.5 0.5 1
2 0 4.82752 -3.66093 2.01818 0.923785 0.382911 0 0 0.5 1 0.5
3 0 5.41302 -3.01431 5.07606 0.923785 0 0.382911 0 1 0.5 0.5
4 0 6.67486 -3.03396 5 0.923785 0 0 0.382911 0.5 0.5 1
5 1 7.26597 -2.91726 -4 0 0.707107 0 0.707107 0.5 1 0.5
6 1 8.49911 -2.65673 -3 0.707107 0 0 0.707107 0.5 0.5 1
7 1 9.30317 -2.2988 -2 0.707107 0 0.707107 0 0.5 1 0.5
ITEM: TIMESTEP
15000
ITEM: NUMBER OF ATOMS
7
ITEM: BOX BOUNDS pp pp pp
0.0000000000000000e+00 1.4000000000000000e+01
-4.0000000000000000e+00 0.0000000000000000e+00
-5.0000000000000000e+00 5.0000000000000000e+00
ITEM: ATOMS id type x y z quatw quati quatj quatk shapex shapey shapez
1 0 3.39545 -3.63095 -3.10208 1 0 0 0 0.5 0.5 1
2 0 4.83877 -3.6679 -3.01161 0.923785 0.382911 0 0 0.5 1 0.5
3 0 5.42306 -3.00646 0.113695 0.923785 0 0.382911 0 1 0.5 0.5
4 0 6.67486 -3.03396 -1.86531e-12 0.923785 0 0 0.382911 0.5 0.5 1
5 1 7.26597 -2.91726 1 0 0.707107 0 0.707107 0.5 1 0.5
6 1 8.49911 -2.65673 2 0.707107 0 0 0.707107 0.5 0.5 1
7 1 9.30317 -2.2988 3 0.707107 0 0.707107 0 0.5 1 0.5
ITEM: TIMESTEP
15500
ITEM: NUMBER OF ATOMS
7
ITEM: BOX BOUNDS pp pp pp
0.0000000000000000e+00 1.4000000000000000e+01
-4.0000000000000000e+00 0.0000000000000000e+00
-5.0000000000000000e+00 5.0000000000000000e+00
ITEM: ATOMS id type x y z quatw quati quatj quatk shapex shapey shapez
1 0 3.37416 -3.63183 1.89008 1 0 0 0 0.5 0.5 1
2 0 4.85003 -3.67487 1.95859 0.923785 0.382911 0 0 0.5 1 0.5
3 0 5.4331 -2.99862 5.15133 0.923785 0 0.382911 0 1 0.5 0.5
4 0 6.67486 -3.03396 5 0.923785 0 0 0.382911 0.5 0.5 1
5 1 7.26597 -2.91726 -4 0 0.707107 0 0.707107 0.5 1 0.5
6 1 8.49911 -2.65673 -3 0.707107 0 0 0.707107 0.5 0.5 1
7 1 9.30317 -2.2988 -2 0.707107 0 0.707107 0 0.5 1 0.5
ITEM: TIMESTEP
16000
ITEM: NUMBER OF ATOMS
7
ITEM: BOX BOUNDS pp pp pp
0.0000000000000000e+00 1.4000000000000000e+01
-4.0000000000000000e+00 0.0000000000000000e+00
-5.0000000000000000e+00 5.0000000000000000e+00
ITEM: ATOMS id type x y z quatw quati quatj quatk shapex shapey shapez
1 0 3.35286 -3.63271 -3.11776 1 0 0 0 0.5 0.5 1
2 0 4.86128 -3.68183 -3.07121 0.923785 0.382911 0 0 0.5 1 0.5
3 0 5.44314 -2.99077 0.188966 0.923785 0 0.382911 0 1 0.5 0.5
4 0 6.67486 -3.03396 -1.98965e-12 0.923785 0 0 0.382911 0.5 0.5 1
5 1 7.26597 -2.91726 1 0 0.707107 0 0.707107 0.5 1 0.5
6 1 8.49911 -2.65673 2 0.707107 0 0 0.707107 0.5 0.5 1
7 1 9.30317 -2.2988 3 0.707107 0 0.707107 0 0.5 1 0.5
ITEM: TIMESTEP
16500
ITEM: NUMBER OF ATOMS
7
ITEM: BOX BOUNDS pp pp pp
0.0000000000000000e+00 1.4000000000000000e+01
-4.0000000000000000e+00 0.0000000000000000e+00
-5.0000000000000000e+00 5.0000000000000000e+00
ITEM: ATOMS id type x y z quatw quati quatj quatk shapex shapey shapez
1 0 3.33157 -3.63359 1.87441 1 0 0 0 0.5 0.5 1
2 0 4.87254 -3.6888 1.89899 0.923785 0.382911 0 0 0.5 1 0.5
3 0 5.45318 -2.98292 -4.7734 0.923785 0 0.382911 0 1 0.5 0.5
4 0 6.67486 -3.03396 5 0.923785 0 0 0.382911 0.5 0.5 1
5 1 7.26597 -2.91726 -4 0 0.707107 0 0.707107 0.5 1 0.5
6 1 8.49911 -2.65673 -3 0.707107 0 0 0.707107 0.5 0.5 1
7 1 9.30317 -2.2988 -2 0.707107 0 0.707107 0 0.5 1 0.5
ITEM: TIMESTEP
17000
ITEM: NUMBER OF ATOMS
7
ITEM: BOX BOUNDS pp pp pp
0.0000000000000000e+00 1.4000000000000000e+01
-4.0000000000000000e+00 0.0000000000000000e+00
-5.0000000000000000e+00 5.0000000000000000e+00
ITEM: ATOMS id type x y z quatw quati quatj quatk shapex shapey shapez
1 0 3.31027 -3.63447 -3.13343 1 0 0 0 0.5 0.5 1
2 0 4.88379 -3.69577 -3.1308 0.923785 0.382911 0 0 0.5 1 0.5
3 0 5.46322 -2.97508 0.264237 0.923785 0 0.382911 0 1 0.5 0.5
4 0 6.67486 -3.03396 -2.114e-12 0.923785 0 0 0.382911 0.5 0.5 1
5 1 7.26597 -2.91726 1 0 0.707107 0 0.707107 0.5 1 0.5
6 1 8.49911 -2.65673 2 0.707107 0 0 0.707107 0.5 0.5 1
7 1 9.30317 -2.2988 3 0.707107 0 0.707107 0 0.5 1 0.5
ITEM: TIMESTEP
17500
ITEM: NUMBER OF ATOMS
7
ITEM: BOX BOUNDS pp pp pp
0.0000000000000000e+00 1.4000000000000000e+01
-4.0000000000000000e+00 0.0000000000000000e+00
-5.0000000000000000e+00 5.0000000000000000e+00
ITEM: ATOMS id type x y z quatw quati quatj quatk shapex shapey shapez
1 0 3.28898 -3.63535 1.85873 1 0 0 0 0.5 0.5 1
2 0 4.89505 -3.70274 1.8394 0.923785 0.382911 0 0 0.5 1 0.5
3 0 5.47326 -2.96723 -4.69813 0.923785 0 0.382911 0 1 0.5 0.5
4 0 6.67486 -3.03396 5 0.923785 0 0 0.382911 0.5 0.5 1
5 1 7.26597 -2.91726 -4 0 0.707107 0 0.707107 0.5 1 0.5
6 1 8.49911 -2.65673 -3 0.707107 0 0 0.707107 0.5 0.5 1
7 1 9.30317 -2.2988 -2 0.707107 0 0.707107 0 0.5 1 0.5
ITEM: TIMESTEP
18000
ITEM: NUMBER OF ATOMS
7
ITEM: BOX BOUNDS pp pp pp
0.0000000000000000e+00 1.4000000000000000e+01
-4.0000000000000000e+00 0.0000000000000000e+00
-5.0000000000000000e+00 5.0000000000000000e+00
ITEM: ATOMS id type x y z quatw quati quatj quatk shapex shapey shapez
1 0 3.26768 -3.63623 -3.14911 1 0 0 0 0.5 0.5 1
2 0 4.9063 -3.70971 -3.1904 0.923785 0.382911 0 0 0.5 1 0.5
3 0 5.4833 -2.95938 0.339508 0.923785 0 0.382911 0 1 0.5 0.5
4 0 6.67486 -3.03396 -2.23834e-12 0.923785 0 0 0.382911 0.5 0.5 1
5 1 7.26597 -2.91726 1 0 0.707107 0 0.707107 0.5 1 0.5
6 1 8.49911 -2.65673 2 0.707107 0 0 0.707107 0.5 0.5 1
7 1 9.30317 -2.2988 3 0.707107 0 0.707107 0 0.5 1 0.5
ITEM: TIMESTEP
18500
ITEM: NUMBER OF ATOMS
7
ITEM: BOX BOUNDS pp pp pp
0.0000000000000000e+00 1.4000000000000000e+01
-4.0000000000000000e+00 0.0000000000000000e+00
-5.0000000000000000e+00 5.0000000000000000e+00
ITEM: ATOMS id type x y z quatw quati quatj quatk shapex shapey shapez
1 0 3.24639 -3.63711 1.84305 1 0 0 0 0.5 0.5 1
2 0 4.91756 -3.71667 1.7798 0.923785 0.382911 0 0 0.5 1 0.5
3 0 5.49334 -2.95153 5.37714 0.923785 0 0.382911 0 1 0.5 0.5
4 0 6.67486 -3.03396 5 0.923785 0 0 0.382911 0.5 0.5 1
5 1 7.26597 -2.91726 -4 0 0.707107 0 0.707107 0.5 1 0.5
6 1 8.49911 -2.65673 -3 0.707107 0 0 0.707107 0.5 0.5 1
7 1 9.30317 -2.2988 -2 0.707107 0 0.707107 0 0.5 1 0.5
ITEM: TIMESTEP
19000
ITEM: NUMBER OF ATOMS
7
ITEM: BOX BOUNDS pp pp pp
0.0000000000000000e+00 1.4000000000000000e+01
-4.0000000000000000e+00 0.0000000000000000e+00
-5.0000000000000000e+00 5.0000000000000000e+00
ITEM: ATOMS id type x y z quatw quati quatj quatk shapex shapey shapez
1 0 3.2251 -3.63799 -3.16478 1 0 0 0 0.5 0.5 1
2 0 4.92881 -3.72364 -3.24999 0.923785 0.382911 0 0 0.5 1 0.5
3 0 5.50338 -2.94369 0.414778 0.923785 0 0.382911 0 1 0.5 0.5
4 0 6.67486 -3.03396 -2.36269e-12 0.923785 0 0 0.382911 0.5 0.5 1
5 1 7.26597 -2.91726 1 0 0.707107 0 0.707107 0.5 1 0.5
6 1 8.49911 -2.65673 2 0.707107 0 0 0.707107 0.5 0.5 1
7 1 9.30317 -2.2988 3 0.707107 0 0.707107 0 0.5 1 0.5
ITEM: TIMESTEP
19500
ITEM: NUMBER OF ATOMS
7
ITEM: BOX BOUNDS pp pp pp
0.0000000000000000e+00 1.4000000000000000e+01
-4.0000000000000000e+00 0.0000000000000000e+00
-5.0000000000000000e+00 5.0000000000000000e+00
ITEM: ATOMS id type x y z quatw quati quatj quatk shapex shapey shapez
1 0 3.2038 -3.63886 1.82738 1 0 0 0 0.5 0.5 1
2 0 4.94007 -3.73061 1.72021 0.923785 0.382911 0 0 0.5 1 0.5
4 0 6.67486 -3.03396 5 0.923785 0 0 0.382911 0.5 0.5 1
3 0 5.51342 -2.93584 -4.54759 0.923785 0 0.382911 0 1 0.5 0.5
5 1 7.26597 -2.91726 -4 0 0.707107 0 0.707107 0.5 1 0.5
6 1 8.49911 -2.65673 -3 0.707107 0 0 0.707107 0.5 0.5 1
7 1 9.30317 -2.2988 -2 0.707107 0 0.707107 0 0.5 1 0.5
ITEM: TIMESTEP
20000
ITEM: NUMBER OF ATOMS
7
ITEM: BOX BOUNDS pp pp pp
0.0000000000000000e+00 1.4000000000000000e+01
-4.0000000000000000e+00 0.0000000000000000e+00
-5.0000000000000000e+00 5.0000000000000000e+00
ITEM: ATOMS id type x y z quatw quati quatj quatk shapex shapey shapez
1 0 3.18251 -3.63974 -3.18046 1 0 0 0 0.5 0.5 1
2 0 4.95132 -3.73758 -3.30959 0.923785 0.382911 0 0 0.5 1 0.5
4 0 6.67486 -3.03396 -2.48703e-12 0.923785 0 0 0.382911 0.5 0.5 1
3 0 5.52345 -2.92799 0.490049 0.923785 0 0.382911 0 1 0.5 0.5
5 1 7.26597 -2.91726 1 0 0.707107 0 0.707107 0.5 1 0.5
6 1 8.49911 -2.65673 2 0.707107 0 0 0.707107 0.5 0.5 1
7 1 9.30317 -2.2988 3 0.707107 0 0.707107 0 0.5 1 0.5
ITEM: TIMESTEP
20500
ITEM: NUMBER OF ATOMS
7
ITEM: BOX BOUNDS pp pp pp
0.0000000000000000e+00 1.4000000000000000e+01
-4.0000000000000000e+00 0.0000000000000000e+00
-5.0000000000000000e+00 5.0000000000000000e+00
ITEM: ATOMS id type x y z quatw quati quatj quatk shapex shapey shapez
1 0 3.16121 -3.64062 1.8117 1 0 0 0 0.5 0.5 1
2 0 4.96258 -3.74454 1.66061 0.923785 0.382911 0 0 0.5 1 0.5
4 0 6.67486 -3.03396 5 0.923785 0 0 0.382911 0.5 0.5 1
3 0 5.53349 -2.92015 -4.47232 0.923785 0 0.382911 0 1 0.5 0.5
5 1 7.26597 -2.91726 -4 0 0.707107 0 0.707107 0.5 1 0.5
6 1 8.49911 -2.65673 -3 0.707107 0 0 0.707107 0.5 0.5 1
7 1 9.30317 -2.2988 -2 0.707107 0 0.707107 0 0.5 1 0.5
ITEM: TIMESTEP
21000
ITEM: NUMBER OF ATOMS
7
ITEM: BOX BOUNDS pp pp pp
0.0000000000000000e+00 1.4000000000000000e+01
-4.0000000000000000e+00 0.0000000000000000e+00
-5.0000000000000000e+00 5.0000000000000000e+00
ITEM: ATOMS id type x y z quatw quati quatj quatk shapex shapey shapez
1 0 3.13992 -3.6415 -3.19613 1 0 0 0 0.5 0.5 1
2 0 4.97383 -3.75151 -3.36919 0.923785 0.382911 0 0 0.5 1 0.5
3 0 5.54353 -2.9123 0.56532 0.923785 0 0.382911 0 1 0.5 0.5
4 0 6.67486 -3.03396 -2.61138e-12 0.923785 0 0 0.382911 0.5 0.5 1
5 1 7.26597 -2.91726 1 0 0.707107 0 0.707107 0.5 1 0.5
6 1 8.49911 -2.65673 2 0.707107 0 0 0.707107 0.5 0.5 1
7 1 9.30317 -2.2988 3 0.707107 0 0.707107 0 0.5 1 0.5
ITEM: TIMESTEP
21500
ITEM: NUMBER OF ATOMS
7
ITEM: BOX BOUNDS pp pp pp
0.0000000000000000e+00 1.4000000000000000e+01
-4.0000000000000000e+00 0.0000000000000000e+00
-5.0000000000000000e+00 5.0000000000000000e+00
ITEM: ATOMS id type x y z quatw quati quatj quatk shapex shapey shapez
1 0 3.11862 -3.64238 1.79603 1 0 0 0 0.5 0.5 1
2 0 4.98509 -3.75848 1.60102 0.923785 0.382911 0 0 0.5 1 0.5
3 0 5.55357 -2.90445 -4.39705 0.923785 0 0.382911 0 1 0.5 0.5
4 0 6.67486 -3.03396 5 0.923785 0 0 0.382911 0.5 0.5 1
5 1 7.26597 -2.91726 -4 0 0.707107 0 0.707107 0.5 1 0.5
6 1 8.49911 -2.65673 -3 0.707107 0 0 0.707107 0.5 0.5 1
7 1 9.30317 -2.2988 -2 0.707107 0 0.707107 0 0.5 1 0.5
ITEM: TIMESTEP
22000
ITEM: NUMBER OF ATOMS
7
ITEM: BOX BOUNDS pp pp pp
0.0000000000000000e+00 1.4000000000000000e+01
-4.0000000000000000e+00 0.0000000000000000e+00
-5.0000000000000000e+00 5.0000000000000000e+00
ITEM: ATOMS id type x y z quatw quati quatj quatk shapex shapey shapez