# LAMMPS data file written by OVITO Basic 3.9.2

7 atoms
1 atom types
7 ellipsoids

0.0 14.0 xlo xhi
-4.0 0.0 ylo yhi
-5.0 5.0 zlo zhi

Atoms  # ellipsoid

1 1 1 238.7324039657 3.6720747474 -3.6194758432 -3.0 0 0 0
2 1 1 238.7324039657 4.8592290209 -3.4471688169 -2.0 0 0 0
3 1 1 238.7324039657 5.1259811856 -3.2386686297 -1.0 0 0 0
4 1 1 238.7324039657 6.6748644336 -3.0339567014 0.0 0 0 0
5 1 1 238.7324039657 7.2659695854 -2.9172640212 1.0 0 0 0
6 1 1 238.7324039657 8.4991127213 -2.6567319878 2.0 0 0 0
7 1 1 238.7324039657 9.3031744326 -2.2987959205 3.0 0 0 0
#8 1 1 238.7324039657 10.9166825231 -2.1720350919 4.5026608531 0 0 0
#9 1 1 238.7324039657 11.9712479822 -1.9939358734 6.7933897807 0 0 0
#10 1 1 238.7324039657 12.0308270283 -1.6917691085 8.7083904569 0 0 0

Velocities

1 0.0 0.0 10 0.0 0.0 0.0
2 0.0 0.0 10 0.0 0.0 0.0
3 0.0 0.0 10 0.0 0.0 0.0
4 0.0 0.0 10 0.0 0.0 0.0
5 0.0 0.0 10 0.0 0.0 0.0
6 0.0 0.0 10 0.0 0.0 0.0
7 0.0 0.0 10 0.0 0.0 0.0
#8 0.0 0.0 10 0.0 0.0 0.0
#9 0.0 0.0 10 0.0 0.0 0.0
#10 0.0 0.0 10 0.0 0.0 0.0

Ellipsoids

1 0.5 0.5 1.0 1.0 0.0 0.0 0.0
2 0.5 1.0 0.5 0.9237853184 0.382910976 0.0 0.0
3 1.0 0.5 0.5 0.9237853184 0.0 0.382910976 0.0
4 0.5 0.5 1.0 0.9237853184 0.0 0.0 0.382910976
5 0.5 1.0 0.5 0.0 0.707106816 0.0 0.707106816
6 0.5 0.5 1.0 0.707106816 0.0 0.0 0.707106816
7 0.5 1.0 0.5 0.707106816 0.0 0.707106816 0.0
#8 1.0 0.5 0.5 0.5774 0.5774 0.5774 0.0
#9 0.5 0.5 1.0 0.5774 0.0 0.5774 0.5774
#10 0.5 1.0 0.5 0.0 0.5774 0.5774 0.5774
