LAMMPS data file via write_data, version 10 Dec 2025, timestep = 100000, units = lj

1000 atoms
1 atom types
1000 ellipsoids

0 11.00642416298209 xlo xhi
0 11.00642416298209 ylo yhi
0 11.00642416298209 zlo zhi

Atoms # ellipsoid/kk

1 1 1 95.4929658551372 0.16309436973844388 0.06973252150404523 0.21041394549750947 0 0 0
5 1 1 95.4929658551372 1.2637367860376065 0.06973252150355723 0.21041394549772233 0 0 0
9 1 1 95.4929658551372 2.364379202335411 0.06973252150329479 0.21041394549723533 0 0 0
13 1 1 95.4929658551372 3.465021618633687 0.06973252150376867 0.21041394549690123 0 0 0
17 1 1 95.4929658551372 4.565664034931035 0.06973252150318313 0.21041394549721598 0 0 0
21 1 1 95.4929658551372 5.666306451229705 0.06973252150394778 0.21041394549553002 0 0 0
25 1 1 95.4929658551372 6.766948867528138 0.0697325215044319 0.21041394549425083 0 0 0
29 1 1 95.4929658551372 7.867591283826214 0.06973252150475491 0.2104139454953675 0 0 0
33 1 1 95.4929658551372 8.968233700124754 0.06973252150453821 0.2104139454973434 0 0 0
37 1 1 95.4929658551372 10.068876116423066 0.06973252150368585 0.21041394549892828 0 0 0
3 1 1 95.4929658551372 0.16309436973821292 1.1703749378020272 0.2104139454972274 0 0 0
7 1 1 95.4929658551372 1.2637367860375637 1.1703749378015897 0.21041394549656026 0 0 0
11 1 1 95.4929658551372 2.364379202335423 1.170374937801267 0.21041394549719164 0 0 0
15 1 1 95.4929658551372 3.4650216186335507 1.1703749378017498 0.21041394549708897 0 0 0
19 1 1 95.4929658551372 4.5656640349306965 1.1703749378012378 0.21041394549589884 0 0 0
23 1 1 95.4929658551372 5.66630645122966 1.1703749378019197 0.21041394549572875 0 0 0
27 1 1 95.4929658551372 6.766948867527905 1.1703749378024255 0.21041394549462616 0 0 0
31 1 1 95.4929658551372 7.867591283826059 1.1703749378028172 0.21041394549512077 0 0 0
35 1 1 95.4929658551372 8.968233700124564 1.1703749378028154 0.21041394549654738 0 0 0
39 1 1 95.4929658551372 10.068876116422825 1.1703749378015846 0.21041394549880701 0 0 0
41 1 1 95.4929658551372 0.16309436973856029 2.2710173540994107 0.21041394549793993 0 0 0
45 1 1 95.4929658551372 1.2637367860380095 2.271017354098857 0.21041394549755824 0 0 0
49 1 1 95.4929658551372 2.3643792023357504 2.271017354098616 0.2104139454978687 0 0 0
53 1 1 95.4929658551372 3.4650216186337386 2.2710173540991008 0.21041394549700226 0 0 0
57 1 1 95.4929658551372 4.565664034931074 2.2710173540985013 0.2104139454973382 0 0 0
61 1 1 95.4929658551372 5.666306451229855 2.271017354099281 0.21041394549598041 0 0 0
65 1 1 95.4929658551372 6.766948867528497 2.2710173540996443 0.21041394549482942 0 0 0
69 1 1 95.4929658551372 7.867591283826366 2.271017354099938 0.2104139454957312 0 0 0
73 1 1 95.4929658551372 8.968233700124712 2.2710173540996155 0.2104139454972212 0 0 0
77 1 1 95.4929658551372 10.068876116422986 2.2710173540990506 0.2104139454995003 0 0 0
43 1 1 95.4929658551372 0.16309436973800928 3.3716597703975335 0.2104139454973753 0 0 0
47 1 1 95.4929658551372 1.263736786037404 3.37165977039677 0.21041394549687847 0 0 0
51 1 1 95.4929658551372 2.3643792023358876 3.3716597703966253 0.2104139454967399 0 0 0
55 1 1 95.4929658551372 3.4650216186332945 3.371659770397032 0.21041394549644518 0 0 0
59 1 1 95.4929658551372 4.565664034930608 3.371659770396626 0.21041394549610604 0 0 0
63 1 1 95.4929658551372 5.666306451229581 3.371659770397056 0.2104139454952204 0 0 0
67 1 1 95.4929658551372 6.766948867527519 3.3716597703975273 0.210413945494387 0 0 0
71 1 1 95.4929658551372 7.867591283825649 3.37165977039775 0.21041394549520986 0 0 0
75 1 1 95.4929658551372 8.96823370012458 3.371659770397319 0.2104139454962026 0 0 0
79 1 1 95.4929658551372 10.068876116422658 3.3716597703971494 0.21041394549816392 0 0 0
81 1 1 95.4929658551372 0.16309436973847916 4.472302186694937 0.21041394549738102 0 0 0
85 1 1 95.4929658551372 1.2637367860380502 4.4723021866942805 0.21041394549637935 0 0 0
89 1 1 95.4929658551372 2.3643792023355616 4.472302186694053 0.21041394549701117 0 0 0
93 1 1 95.4929658551372 3.4650216186335268 4.472302186694853 0.21041394549643985 0 0 0
97 1 1 95.4929658551372 4.565664034930565 4.472302186694088 0.2104139454954426 0 0 0
101 1 1 95.4929658551372 5.666306451229703 4.472302186694775 0.21041394549548406 0 0 0
105 1 1 95.4929658551372 6.76694886752832 4.47230218669564 0.21041394549382042 0 0 0
109 1 1 95.4929658551372 7.86759128382634 4.47230218669591 0.21041394549487458 0 0 0
113 1 1 95.4929658551372 8.968233700124559 4.4723021866957176 0.21041394549675665 0 0 0
117 1 1 95.4929658551372 10.068876116422627 4.472302186694891 0.21041394549807857 0 0 0
83 1 1 95.4929658551372 0.16309436973814032 5.5729446029935445 0.210413945497994 0 0 0
87 1 1 95.4929658551372 1.2637367860373756 5.572944602993073 0.21041394549733253 0 0 0
91 1 1 95.4929658551372 2.3643792023358383 5.572944602992482 0.21041394549789896 0 0 0
95 1 1 95.4929658551372 3.465021618633512 5.572944602993016 0.21041394549761602 0 0 0
99 1 1 95.4929658551372 4.565664034930969 5.572944602992768 0.21041394549693446 0 0 0
103 1 1 95.4929658551372 5.666306451229923 5.57294460299329 0.2104139454958646 0 0 0
107 1 1 95.4929658551372 6.766948867527529 5.572944602993739 0.21041394549467815 0 0 0
111 1 1 95.4929658551372 7.8675912838261155 5.572944602993926 0.21041394549626577 0 0 0
115 1 1 95.4929658551372 8.968233700124804 5.5729446029939105 0.21041394549674847 0 0 0
119 1 1 95.4929658551372 10.068876116422967 5.572944602993132 0.21041394549926187 0 0 0
121 1 1 95.4929658551372 0.16309436973878438 6.673587019293463 0.21041394549896728 0 0 0
125 1 1 95.4929658551372 1.2637367860381832 6.673587019292703 0.2104139454981715 0 0 0
129 1 1 95.4929658551372 2.3643792023357397 6.673587019292809 0.21041394549828268 0 0 0
133 1 1 95.4929658551372 3.46502161863408 6.67358701929313 0.2104139454983573 0 0 0
137 1 1 95.4929658551372 4.5656640349312925 6.673587019292419 0.2104139454972623 0 0 0
141 1 1 95.4929658551372 5.666306451229828 6.673587019293309 0.21041394549629308 0 0 0
145 1 1 95.4929658551372 6.7669488675287655 6.673587019293784 0.21041394549571102 0 0 0
149 1 1 95.4929658551372 7.867591283826606 6.673587019293978 0.21041394549665918 0 0 0
153 1 1 95.4929658551372 8.96823370012499 6.673587019293766 0.21041394549821785 0 0 0
157 1 1 95.4929658551372 10.068876116423194 6.673587019293027 0.21041394549947545 0 0 0
123 1 1 95.4929658551372 0.1630943697383812 7.774229435593282 0.21041394549825382 0 0 0
127 1 1 95.4929658551372 1.2637367860376854 7.774229435592628 0.21041394549725945 0 0 0
131 1 1 95.4929658551372 2.3643792023354364 7.774229435592327 0.21041394549743167 0 0 0
135 1 1 95.4929658551372 3.465021618633702 7.774229435592889 0.2104139454971784 0 0 0
139 1 1 95.4929658551372 4.565664034930994 7.774229435592261 0.21041394549709308 0 0 0
143 1 1 95.4929658551372 5.666306451229656 7.77422943559314 0.21041394549606826 0 0 0
147 1 1 95.4929658551372 6.766948867528343 7.774229435593411 0.21041394549483763 0 0 0
151 1 1 95.4929658551372 7.867591283826203 7.774229435593701 0.21041394549577283 0 0 0
155 1 1 95.4929658551372 8.968233700124626 7.774229435593322 0.2104139454971005 0 0 0
159 1 1 95.4929658551372 10.068876116422997 7.774229435592941 0.21041394549944029 0 0 0
161 1 1 95.4929658551372 0.16309436973799415 8.87487185188923 0.2104139454962914 0 0 0
165 1 1 95.4929658551372 1.2637367860375945 8.874871851888505 0.21041394549622716 0 0 0
169 1 1 95.4929658551372 2.3643792023354964 8.874871851888239 0.210413945495922 0 0 0
173 1 1 95.4929658551372 3.4650216186333513 8.87487185188882 0.21041394549614206 0 0 0
177 1 1 95.4929658551372 4.565664034930656 8.874871851888106 0.21041394549618633 0 0 0
181 1 1 95.4929658551372 5.6663064512294765 8.874871851889175 0.21041394549395254 0 0 0
185 1 1 95.4929658551372 6.766948867527651 8.874871851889454 0.21041394549387238 0 0 0
189 1 1 95.4929658551372 7.867591283825965 8.874871851889955 0.21041394549399686 0 0 0
193 1 1 95.4929658551372 8.968233700124532 8.874871851889615 0.2104139454957404 0 0 0
197 1 1 95.4929658551372 10.06887611642247 8.874871851888853 0.21041394549757866 0 0 0
163 1 1 95.4929658551372 0.1630943697379356 9.975514268187101 0.21041394549770975 0 0 0
167 1 1 95.4929658551372 1.2637367860371158 9.975514268186672 0.21041394549605505 0 0 0
171 1 1 95.4929658551372 2.3643792023356385 9.975514268186235 0.21041394549735837 0 0 0
175 1 1 95.4929658551372 3.465021618633289 9.975514268186718 0.21041394549677855 0 0 0
179 1 1 95.4929658551372 4.5656640349307835 9.975514268186448 0.21041394549577147 0 0 0
183 1 1 95.4929658551372 5.666306451229284 9.975514268186764 0.21041394549568104 0 0 0
187 1 1 95.4929658551372 6.766948867527664 9.975514268187045 0.21041394549496098 0 0 0
191 1 1 95.4929658551372 7.867591283825404 9.975514268187471 0.2104139454953339 0 0 0
195 1 1 95.4929658551372 8.968233700124486 9.975514268187219 0.21041394549564849 0 0 0
199 1 1 95.4929658551372 10.06887611642279 9.975514268186714 0.21041394549909911 0 0 0
4 1 1 95.4929658551372 0.3584240721142981 0.8301649025949294 1.2355534568090367 0 0 0
8 1 1 95.4929658551372 1.4590664884117284 0.8301649025963425 1.235553456809043 0 0 0
12 1 1 95.4929658551372 2.5597089047088177 0.8301649025969846 1.2355534568095694 0 0 0
16 1 1 95.4929658551372 3.6603513210071816 0.8301649025953077 1.2355534568086857 0 0 0
20 1 1 95.4929658551372 4.760993737304942 0.8301649025946313 1.2355534568081141 0 0 0
24 1 1 95.4929658551372 5.861636153604274 0.830164902595609 1.2355534568082729 0 0 0
28 1 1 95.4929658551372 6.962278569901849 0.8301649025959866 1.2355534568073163 0 0 0
32 1 1 95.4929658551372 8.062920986198417 0.8301649025954091 1.2355534568075868 0 0 0
36 1 1 95.4929658551372 9.16356340249681 0.8301649025932599 1.2355534568079094 0 0 0
40 1 1 95.4929658551372 10.26420581879599 0.8301649025959842 1.2355534568110955 0 0 0
42 1 1 95.4929658551372 0.35842407211284755 1.9308073188930561 1.2355534568093816 0 0 0
46 1 1 95.4929658551372 1.4590664884108433 1.9308073188944916 1.235553456809788 0 0 0
50 1 1 95.4929658551372 2.5597089047073722 1.9308073188955102 1.2355534568098923 0 0 0
54 1 1 95.4929658551372 3.660351321005554 1.9308073188933332 1.2355534568084527 0 0 0
58 1 1 95.4929658551372 4.760993737304206 1.9308073188930106 1.2355534568093849 0 0 0
62 1 1 95.4929658551372 5.861636153602036 1.9308073188939383 1.2355534568082902 0 0 0
66 1 1 95.4929658551372 6.962278569901097 1.9308073188945702 1.2355534568074809 0 0 0
70 1 1 95.4929658551372 8.062920986197472 1.9308073188938255 1.2355534568081459 0 0 0
74 1 1 95.4929658551372 9.163563402495818 1.930807318891741 1.2355534568085436 0 0 0
78 1 1 95.4929658551372 10.264205818794375 1.9308073188938553 1.2355534568114483 0 0 0
44 1 1 95.4929658551372 0.3584240721126565 3.0314497351911176 1.2355534568090651 0 0 0
48 1 1 95.4929658551372 1.459066488410967 3.031449735192687 1.2355534568094566 0 0 0
52 1 1 95.4929658551372 2.559708904707604 3.031449735193028 1.2355534568094133 0 0 0
56 1 1 95.4929658551372 3.660351321005756 3.0314497351914533 1.2355534568083772 0 0 0
60 1 1 95.4929658551372 4.760993737303867 3.0314497351907965 1.2355534568086572 0 0 0
64 1 1 95.4929658551372 5.861636153602602 3.031449735191734 1.2355534568077728 0 0 0
68 1 1 95.4929658551372 6.962278569901285 3.0314497351918632 1.2355534568071453 0 0 0
72 1 1 95.4929658551372 8.062920986197772 3.0314497351915155 1.2355534568080313 0 0 0
76 1 1 95.4929658551372 9.163563402495596 3.031449735189257 1.2355534568082025 0 0 0
80 1 1 95.4929658551372 10.264205818794238 3.031449735191577 1.2355534568107376 0 0 0
82 1 1 95.4929658551372 0.3584240721112567 4.132092151489637 1.2355534568097695 0 0 0
86 1 1 95.4929658551372 1.4590664884099145 4.132092151490713 1.2355534568094453 0 0 0
90 1 1 95.4929658551372 2.5597089047062087 4.132092151491249 1.2355534568102982 0 0 0
94 1 1 95.4929658551372 3.6603513210037955 4.132092151489761 1.235553456808811 0 0 0
98 1 1 95.4929658551372 4.760993737302448 4.1320921514890046 1.2355534568085846 0 0 0
102 1 1 95.4929658551372 5.861636153600933 4.1320921514901165 1.2355534568090054 0 0 0
106 1 1 95.4929658551372 6.962278569900062 4.132092151490321 1.2355534568072877 0 0 0
110 1 1 95.4929658551372 8.062920986196527 4.132092151489811 1.235553456808265 0 0 0
114 1 1 95.4929658551372 9.163563402494324 4.132092151487976 1.2355534568091249 0 0 0
118 1 1 95.4929658551372 10.264205818792838 4.132092151490423 1.2355534568111821 0 0 0
84 1 1 95.4929658551372 0.35842407211296723 5.2327345677876 1.235553456809862 0 0 0
88 1 1 95.4929658551372 1.4590664884115137 5.232734567788825 1.2355534568099678 0 0 0
92 1 1 95.4929658551372 2.5597089047079007 5.23273456779015 1.2355534568105992 0 0 0
96 1 1 95.4929658551372 3.6603513210061043 5.232734567787868 1.2355534568094173 0 0 0
100 1 1 95.4929658551372 4.760993737304183 5.232734567787266 1.2355534568096145 0 0 0
104 1 1 95.4929658551372 5.861636153602914 5.232734567788468 1.2355534568085869 0 0 0
108 1 1 95.4929658551372 6.96227856990162 5.232734567788886 1.2355534568074569 0 0 0
112 1 1 95.4929658551372 8.0629209861984 5.232734567788411 1.2355534568088729 0 0 0
116 1 1 95.4929658551372 9.163563402496003 5.23273456778661 1.2355534568085438 0 0 0
120 1 1 95.4929658551372 10.264205818794462 5.232734567788573 1.2355534568117263 0 0 0
122 1 1 95.4929658551372 0.358424072112554 6.33337698408547 1.235553456810522 0 0 0
126 1 1 95.4929658551372 1.4590664884112199 6.333376984086718 1.2355534568104067 0 0 0
130 1 1 95.4929658551372 2.5597089047080304 6.33337698408746 1.2355534568103999 0 0 0
134 1 1 95.4929658551372 3.660351321005785 6.333376984085733 1.2355534568098028 0 0 0
138 1 1 95.4929658551372 4.7609937373041715 6.333376984085197 1.2355534568095268 0 0 0
142 1 1 95.4929658551372 5.86163615360288 6.333376984086034 1.2355534568086721 0 0 0
146 1 1 95.4929658551372 6.962278569900593 6.333376984086358 1.2355534568080324 0 0 0
150 1 1 95.4929658551372 8.062920986198243 6.3333769840857395 1.235553456808716 0 0 0
154 1 1 95.4929658551372 9.163563402495889 6.333376984084256 1.2355534568095863 0 0 0
158 1 1 95.4929658551372 10.264205818794151 6.333376984086114 1.235553456811581 0 0 0
124 1 1 95.4929658551372 0.35842407211257094 7.434019400383186 1.2355534568100424 0 0 0
128 1 1 95.4929658551372 1.4590664884110667 7.434019400384859 1.2355534568098967 0 0 0
132 1 1 95.4929658551372 2.5597089047079025 7.434019400385162 1.2355534568100262 0 0 0
136 1 1 95.4929658551372 3.6603513210054017 7.434019400383529 1.235553456808976 0 0 0
140 1 1 95.4929658551372 4.760993737303856 7.434019400383145 1.2355534568096542 0 0 0
144 1 1 95.4929658551372 5.861636153602734 7.434019400383686 1.2355534568087136 0 0 0
148 1 1 95.4929658551372 6.962278569900526 7.434019400384099 1.2355534568077005 0 0 0
152 1 1 95.4929658551372 8.062920986198066 7.43401940038341 1.2355534568082636 0 0 0
156 1 1 95.4929658551372 9.163563402495699 7.434019400381042 1.2355534568087756 0 0 0
160 1 1 95.4929658551372 10.264205818794172 7.434019400384039 1.2355534568117492 0 0 0
162 1 1 95.4929658551372 0.35842407211355565 8.534661816681362 1.2355534568079438 0 0 0
166 1 1 95.4929658551372 1.459066488411397 8.534661816682855 1.2355534568086843 0 0 0
170 1 1 95.4929658551372 2.55970890470824 8.534661816682926 1.235553456808347 0 0 0
174 1 1 95.4929658551372 3.6603513210066123 8.534661816681833 1.235553456807757 0 0 0
178 1 1 95.4929658551372 4.7609937373045 8.534661816681366 1.2355534568085969 0 0 0
182 1 1 95.4929658551372 5.861636153603878 8.534661816681705 1.2355534568063364 0 0 0
186 1 1 95.4929658551372 6.962278569901061 8.534661816682084 1.2355534568063402 0 0 0
190 1 1 95.4929658551372 8.06292098619866 8.534661816681627 1.235553456806414 0 0 0
194 1 1 95.4929658551372 9.163563402496472 8.534661816679794 1.2355534568073663 0 0 0
198 1 1 95.4929658551372 10.264205818795308 8.534661816681893 1.2355534568097022 0 0 0
164 1 1 95.4929658551372 0.358424072113244 9.635304232980836 1.2355534568098057 0 0 0
168 1 1 95.4929658551372 1.4590664884115079 9.635304232981898 1.2355534568088284 0 0 0
172 1 1 95.4929658551372 2.5597089047084958 9.635304232982524 1.2355534568102695 0 0 0
176 1 1 95.4929658551372 3.6603513210058374 9.635304232980936 1.2355534568089914 0 0 0
180 1 1 95.4929658551372 4.760993737304316 9.63530423298027 1.2355534568084776 0 0 0
184 1 1 95.4929658551372 5.861636153603368 9.635304232981298 1.2355534568087507 0 0 0
188 1 1 95.4929658551372 6.962278569901275 9.635304232981465 1.2355534568079403 0 0 0
192 1 1 95.4929658551372 8.06292098619835 9.635304232981085 1.2355534568082536 0 0 0
196 1 1 95.4929658551372 9.16356340249643 9.63530423297975 1.2355534568077524 0 0 0
200 1 1 95.4929658551372 10.26420581879471 9.63530423298135 1.235553456811853 0 0 0
2 1 1 95.4929658551372 0.35842407211449256 10.735946649278967 1.235553456809367 0 -1 0
6 1 1 95.4929658551372 1.4590664884119322 10.73594664928053 1.2355534568104334 0 -1 0
10 1 1 95.4929658551372 2.559708904709354 10.735946649281166 1.235553456809716 0 -1 0
14 1 1 95.4929658551372 3.660351321007747 10.73594664927919 1.2355534568086768 0 -1 0
18 1 1 95.4929658551372 4.760993737305511 10.735946649278846 1.2355534568097648 0 -1 0
22 1 1 95.4929658551372 5.861636153604397 10.735946649279539 1.2355534568081556 0 -1 0
26 1 1 95.4929658551372 6.9622785699024154 10.73594664927984 1.2355534568070432 0 -1 0
30 1 1 95.4929658551372 8.062920986198726 10.735946649279361 1.2355534568079225 0 -1 0
34 1 1 95.4929658551372 9.16356340249675 10.73594664927712 1.2355534568089912 0 -1 0
38 1 1 95.4929658551372 10.264205818796256 10.73594664927992 1.2355534568113677 0 -1 0
205 1 1 79.57747154594766 0.4952372857063856 0.4793124054745111 2.3866966640882925 0 0 0
209 1 1 79.57747154594766 1.5958797020051367 0.47931240547355475 2.3866966640881424 0 0 0
213 1 1 79.57747154594766 2.6965221183034407 0.4793124054721685 2.3866966640863665 0 0 0
217 1 1 79.57747154594766 3.7971645346008915 0.4793124054751822 2.386696664087344 0 0 0
221 1 1 79.57747154594766 4.897806950899467 0.47931240547743376 2.3866966640862404 0 0 0
225 1 1 79.57747154594766 5.998449367197672 0.47931240547432835 2.3866966640869944 0 0 0
229 1 1 79.57747154594766 7.099091783496394 0.4793124054736004 2.386696664089023 0 0 0
233 1 1 79.57747154594766 8.19973419979413 0.4793124054737429 2.3866966640881557 0 0 0
237 1 1 79.57747154594766 9.300376616092283 0.47931240547777876 2.386696664090856 0 0 0
201 1 1 79.57747154594766 10.401019032390199 0.47931240547296056 2.3866966640862772 -1 0 0
207 1 1 79.57747154594766 0.49523728570618625 1.5799548217722839 2.3866966640882357 0 0 0
211 1 1 79.57747154594766 1.5958797020050013 1.5799548217707986 2.3866966640876957 0 0 0
215 1 1 79.57747154594766 2.6965221183035677 1.5799548217698232 2.38669666408895 0 0 0
219 1 1 79.57747154594766 3.7971645346004546 1.5799548217727823 2.386696664087056 0 0 0
223 1 1 79.57747154594766 4.897806950899279 1.5799548217745774 2.3866966640829474 0 0 0
227 1 1 79.57747154594766 5.998449367197513 1.5799548217721602 2.3866966640873972 0 0 0
231 1 1 79.57747154594766 7.099091783496743 1.5799548217714148 2.386696664088934 0 0 0
235 1 1 79.57747154594766 8.199734199794403 1.579954821771634 2.38669666408811 0 0 0
239 1 1 79.57747154594766 9.300376616091535 1.579954821775855 2.3866966640897047 0 0 0
203 1 1 79.57747154594766 10.40101903239151 1.5799548217703663 2.386696664088877 -1 0 0
245 1 1 79.57747154594766 0.49523728570636627 2.6805972380693777 2.3866966640877454 0 0 0
249 1 1 79.57747154594766 1.5958797020051816 2.6805972380680982 2.3866966640876943 0 0 0
253 1 1 79.57747154594766 2.696522118303165 2.6805972380671244 2.386696664086239 0 0 0
257 1 1 79.57747154594766 3.797164534600538 2.680597238069911 2.3866966640870024 0 0 0
261 1 1 79.57747154594766 4.897806950899416 2.6805972380719156 2.3866966640831806 0 0 0
265 1 1 79.57747154594766 5.9984493671973365 2.680597238069083 2.3866966640868466 0 0 0
269 1 1 79.57747154594766 7.099091783496393 2.68059723806867 2.3866966640888045 0 0 0
273 1 1 79.57747154594766 8.199734199794296 2.6805972380687138 2.3866966640876193 0 0 0
277 1 1 79.57747154594766 9.300376616092137 2.6805972380730267 2.3866966640900102 0 0 0
241 1 1 79.57747154594766 10.401019032389947 2.680597238067792 2.386696664086312 -1 0 0
247 1 1 79.57747154594766 0.4952372857082529 3.7812396543670976 2.3866966640878884 0 0 0
251 1 1 79.57747154594766 1.5958797020066864 3.7812396543659648 2.3866966640876095 0 0 0
255 1 1 79.57747154594766 2.696522118304936 3.7812396543645335 2.3866966640857763 0 0 0
259 1 1 79.57747154594766 3.7971645346025045 3.7812396543682962 2.386696664087178 0 0 0
263 1 1 79.57747154594766 4.89780695090068 3.781239654370157 2.3866966640826854 0 0 0
267 1 1 79.57747154594766 5.998449367199121 3.7812396543668827 2.3866966640866907 0 0 0
271 1 1 79.57747154594766 7.099091783498192 3.7812396543663493 2.38669666408819 0 0 0
275 1 1 79.57747154594766 8.19973419979597 3.7812396543666313 2.3866966640875207 0 0 0
279 1 1 79.57747154594766 9.300376616094448 3.7812396543711433 2.386696664089831 0 0 0
243 1 1 79.57747154594766 10.401019032391318 3.781239654365668 2.3866966640864304 -1 0 0
285 1 1 79.57747154594766 0.4952372857063242 4.881882070666202 2.386696664087339 0 0 0
289 1 1 79.57747154594766 1.595879702004875 4.881882070664546 2.3866966640877325 0 0 0
293 1 1 79.57747154594766 2.696522118302762 4.881882070663751 2.3866966640859566 0 0 0
297 1 1 79.57747154594766 3.797164534600606 4.88188207066734 2.3866966640832175 0 0 0
301 1 1 79.57747154594766 4.897806950899005 4.88188207066837 2.3866966640826393 0 0 0
305 1 1 79.57747154594766 5.998449367197506 4.8818820706660295 2.3866966640862106 0 0 0
309 1 1 79.57747154594766 7.099091783496688 4.88188207066545 2.3866966640880265 0 0 0
313 1 1 79.57747154594766 8.19973419979444 4.881882070665537 2.3866966640870895 0 0 0
317 1 1 79.57747154594766 9.300376616091128 4.881882070669234 2.386696664089805 0 0 0
281 1 1 79.57747154594766 10.40101903239018 4.881882070665083 2.386696664082786 -1 0 0
287 1 1 79.57747154594766 0.49523728570684367 5.982524486964681 2.3866966640874026 0 0 0
291 1 1 79.57747154594766 1.5958797020056352 5.982524486963379 2.386696664087257 0 0 0
295 1 1 79.57747154594766 2.696522118303816 5.982524486962146 2.386696664085672 0 0 0
299 1 1 79.57747154594766 3.797164534601209 5.982524486965967 2.386696664083494 0 0 0
303 1 1 79.57747154594766 4.8978069508996755 5.9825244869672405 2.3866966640825797 0 0 0
307 1 1 79.57747154594766 5.99844936719806 5.982524486964406 2.3866966640865512 0 0 0
311 1 1 79.57747154594766 7.099091783497312 5.9825244869638246 2.386696664087838 0 0 0
315 1 1 79.57747154594766 8.199734199794994 5.98252448696414 2.3866966640868417 0 0 0
319 1 1 79.57747154594766 9.300376616092144 5.982524486967882 2.3866966640896794 0 0 0
283 1 1 79.57747154594766 10.40101903239159 5.982524486962572 2.386696664082709 -1 0 0
325 1 1 79.57747154594766 0.49523728570690034 7.083166903262412 2.3866966640883645 0 0 0
329 1 1 79.57747154594766 1.5958797020057205 7.083166903261478 2.3866966640884284 0 0 0
333 1 1 79.57747154594766 2.6965221183035855 7.083166903259747 2.38669666408747 0 0 0
337 1 1 79.57747154594766 3.797164534600987 7.083166903263424 2.386696664084614 0 0 0
341 1 1 79.57747154594766 4.897806950899552 7.08316690326525 2.3866966640837837 0 0 0
345 1 1 79.57747154594766 5.998449367197645 7.083166903262053 2.38669666408754 0 0 0
349 1 1 79.57747154594766 7.099091783496987 7.083166903261713 2.386696664089217 0 0 0
353 1 1 79.57747154594766 8.19973419979482 7.083166903261806 2.38669666408824 0 0 0
357 1 1 79.57747154594766 9.3003766160918 7.0831669032660765 2.386696664090208 0 0 0
321 1 1 79.57747154594766 10.401019032390403 7.083166903261026 2.3866966640874483 -1 0 0
327 1 1 79.57747154594766 0.4952372857069931 8.183809319562098 2.3866966640895266 0 0 0
331 1 1 79.57747154594766 1.5958797020056468 8.183809319560213 2.3866966640896603 0 0 0
335 1 1 79.57747154594766 2.696522118303611 8.183809319558561 2.3866966640883147 0 0 0
339 1 1 79.57747154594766 3.797164534601129 8.183809319563208 2.3866966640889613 0 0 0
343 1 1 79.57747154594766 4.897806950899713 8.1838093195641 2.3866966640845138 0 0 0
347 1 1 79.57747154594766 5.998449367197711 8.1838093195613 2.3866966640888085 0 0 0
351 1 1 79.57747154594766 7.099091783496867 8.183809319560037 2.3866966640900853 0 0 0
355 1 1 79.57747154594766 8.199734199794916 8.183809319560671 2.3866966640896887 0 0 0
359 1 1 79.57747154594766 9.300376616092283 8.18380931956482 2.3866966640919753 0 0 0
323 1 1 79.57747154594766 10.401019032390579 8.183809319560233 2.3866966640886735 -1 0 0
365 1 1 79.57747154594766 0.49523728570750225 9.284451735859836 2.3866966640894045 0 0 0
369 1 1 79.57747154594766 1.5958797020061104 9.284451735858408 2.3866966640884693 0 0 0
373 1 1 79.57747154594766 2.696522118304242 9.284451735857141 2.386696664087797 0 0 0
377 1 1 79.57747154594766 3.7971645346017873 9.284451735860644 2.38669666408468 0 0 0
381 1 1 79.57747154594766 4.89780695090012 9.28445173586241 2.386696664084092 0 0 0
385 1 1 79.57747154594766 5.998449367198629 9.284451735859689 2.3866966640881255 0 0 0
389 1 1 79.57747154594766 7.099091783497815 9.28445173585911 2.3866966640899494 0 0 0
393 1 1 79.57747154594766 8.19973419979552 9.284451735859305 2.3866966640889435 0 0 0
397 1 1 79.57747154594766 9.300376616093422 9.284451735863774 2.3866966640917275 0 0 0
361 1 1 79.57747154594766 10.401019032391575 9.28445173585785 2.3866966640842358 -1 0 0
367 1 1 79.57747154594766 0.49523728570629155 10.38509415215886 2.386696664088995 0 0 0
371 1 1 79.57747154594766 1.5958797020051112 10.385094152157246 2.3866966640888467 0 0 0
375 1 1 79.57747154594766 2.6965221183033163 10.385094152156448 2.3866966640874536 0 0 0
379 1 1 79.57747154594766 3.7971645346003817 10.385094152159617 2.386696664088286 0 0 0
383 1 1 79.57747154594766 4.897806950899092 10.38509415216058 2.386696664083918 0 0 0
387 1 1 79.57747154594766 5.9984493671971695 10.385094152158747 2.386696664087616 0 0 0
391 1 1 79.57747154594766 7.099091783496414 10.385094152158004 2.3866966640894454 0 0 0
395 1 1 79.57747154594766 8.199734199794007 10.385094152157917 2.3866966640890515 0 0 0
399 1 1 79.57747154594766 9.300376616090984 10.385094152161725 2.386696664091 0 0 0
363 1 1 79.57747154594766 10.401019032389723 10.385094152157336 2.386696664087405 -1 0 0
206 1 1 79.57747154594766 1.0393989736411042 0.08787138623129259 3.294751822206617 0 0 0
210 1 1 79.57747154594766 2.1400413899373927 0.08787138623172734 3.2947518222074157 0 0 0
214 1 1 79.57747154594766 3.240683806235866 0.0878713862312545 3.294751822206957 0 0 0
218 1 1 79.57747154594766 4.341326222535434 0.08787138623070397 3.2947518222069627 0 0 0
222 1 1 79.57747154594766 5.441968638832466 0.08787138622943216 3.2947518222045824 0 0 0
226 1 1 79.57747154594766 6.54261105513122 0.0878713862305284 3.294751822205459 0 0 0
230 1 1 79.57747154594766 7.643253471429269 0.0878713862305888 3.2947518222060426 0 0 0
234 1 1 79.57747154594766 8.74389588772865 0.08787138623000042 3.294751822204701 0 0 0
238 1 1 79.57747154594766 9.844538304027383 0.08787138623049531 3.2947518222066754 0 0 0
202 1 1 79.57747154594766 10.945180720326483 0.0878713862315891 3.294751822205465 -1 0 0
208 1 1 79.57747154594766 1.0393989736417633 1.188513802529603 3.2947518222073477 0 0 0
212 1 1 79.57747154594766 2.1400413899381276 1.1885138025299453 3.294751822207265 0 0 0
216 1 1 79.57747154594766 3.2406838062366994 1.1885138025302373 3.294751822210454 0 0 0
220 1 1 79.57747154594766 4.3413262225362335 1.1885138025292006 3.294751822206582 0 0 0
224 1 1 79.57747154594766 5.441968638833199 1.1885138025275386 3.2947518222028447 0 0 0
228 1 1 79.57747154594766 6.542611055132067 1.1885138025289377 3.294751822205846 0 0 0
232 1 1 79.57747154594766 7.64325347142982 1.1885138025291553 3.2947518222064285 0 0 0
236 1 1 79.57747154594766 8.74389588773035 1.1885138025285333 3.2947518222050203 0 0 0
240 1 1 79.57747154594766 9.844538304027825 1.188513802528564 3.2947518222060874 0 0 0
204 1 1 79.57747154594766 10.94518072032569 1.1885138025298376 3.294751822208791 -1 0 0
246 1 1 79.57747154594766 1.0393989736424651 2.28915621882829 3.2947518222067305 0 0 0
250 1 1 79.57747154594766 2.140041389938466 2.289156218828282 3.2947518222078034 0 0 0
254 1 1 79.57747154594766 3.240683806236725 2.289156218827541 3.2947518222072794 0 0 0
258 1 1 79.57747154594766 4.34132622253698 2.2891562188272787 3.294751822207489 0 0 0
262 1 1 79.57747154594766 5.441968638833729 2.289156218825634 3.2947518222034895 0 0 0
266 1 1 79.57747154594766 6.542611055132585 2.289156218827518 3.29475182220587 0 0 0
270 1 1 79.57747154594766 7.643253471429979 2.289156218828227 3.2947518222065018 0 0 0
274 1 1 79.57747154594766 8.74389588773055 2.28915621882675 3.294751822205056 0 0 0
278 1 1 79.57747154594766 9.844538304028223 2.2891562188274284 3.294751822206894 0 0 0
242 1 1 79.57747154594766 10.94518072032689 2.289156218827645 3.294751822206249 -1 0 0
248 1 1 79.57747154594766 1.0393989736433178 3.3897986351261653 3.2947518222082057 0 0 0
252 1 1 79.57747154594766 2.1400413899402757 3.3897986351262235 3.294751822209303 0 0 0
256 1 1 79.57747154594766 3.2406838062381214 3.3897986351259957 3.294751822208425 0 0 0
260 1 1 79.57747154594766 4.341326222537626 3.389798635124518 3.2947518222092667 0 0 0
264 1 1 79.57747154594766 5.441968638834897 3.389798635123394 3.294751822205196 0 0 0
268 1 1 79.57747154594766 6.542611055133071 3.389798635125008 3.2947518222073846 0 0 0
272 1 1 79.57747154594766 7.643253471431076 3.3897986351261675 3.294751822207949 0 0 0
276 1 1 79.57747154594766 8.74389588773189 3.3897986351245244 3.294751822206174 0 0 0
280 1 1 79.57747154594766 9.844538304029216 3.389798635125171 3.2947518222079077 0 0 0
244 1 1 79.57747154594766 10.945180720328016 3.389798635125305 3.294751822207488 -1 0 0
286 1 1 79.57747154594766 1.0393989736434976 4.490441051424495 3.2947518222076613 0 0 0
290 1 1 79.57747154594766 2.1400413899394843 4.490441051424268 3.294751822208496 0 0 0