LAMMPS data file via write_data, version 2 Aug 2023, timestep = 25000, units = lj

10 atoms
1 atom types
0 ellipsoids

3 8 xlo xhi
-4 0 ylo yhi
-7 3 zlo zhi

Atoms # ellipsoid

2 1 0 238.7324039657 3.1128197026835522 -3.9586874657114937 -6.637457838475913 0 0 0
3 1 0 238.7324039657 6.156085790793489 -3.6760617429426947 -5.4030576638907695 -1 0 0
4 1 0 238.7324039657 4.738927060729867 -2.0188823634672532 -3.5993819793939434 0 0 0
10 1 0 238.7324039657 7.371103048910234 -0.1274230862260122 -2.326375581876464 0 0 1
6 1 0 238.7324039657 7.04348428144129 -3.076986761530289 -2.0334080345292302 -1 0 0
5 1 0 238.7324039657 3.7708467625464412 -2.867694476025837 -0.11115962213464131 1 0 0
1 1 0 238.7324039657 7.922907470857613 -0.7448503181790722 -0.46930837994474406 -1 -1 -1
9 1 0 238.7324039657 6.814779628846441 -3.2654749975374657 1.5841533994580386 0 0 0
7 1 0 238.7324039657 6.681563224025578 -1.375604699199132 -1.9335103926249184 0 0 0
8 1 0 238.7324039657 5.706646689573808 -1.9581360836851052 1.0311382554153687 1 0 0

Velocities

2 -0.03010772647577332 -0.020586604304335926 -0.04870387494102213 0 0 0
3 -0.12376794244549004 -0.018840373043558088 -0.042694853703952686 0 0 0
4 0.0021102609766773177 0.041981034015854804 -0.0011827639474173343 0 0 0
10 0.03819105015537785 -0.06554261323716398 0.14821443575117016 0 0 0
6 -0.18914189737984693 0.1028419239619759 0.01656073383390078 0 0 0
5 0.15015404006974914 0.08624803767884003 0.06780938738614657 0 0 0
1 -0.03460434016797424 -0.12958961742089264 -0.12297793104646022 0 0 0
9 -0.005863835267040008 -0.050263579565093267 0.004142971857278252 0 0 0
7 0.017589079796064565 0.04266149302794871 -0.06084083914877743 0 0 0
8 0.17544131073825606 0.011090298886424545 0.03967273395913359 0 0 0

Ellipsoids

