LAMMPS data file via write_data, version 7 Feb 2024, timestep = 10, units = lj

10 atoms
1 atom types
0 ellipsoids

3 8 xlo xhi
-4 0 ylo yhi
-7 3 zlo zhi

Atoms # ellipsoid/kk

1 1 0 238.7324039657 3.6720747358008214 -3.6194758538789977 -6.450522307290319 0 0 0
2 1 0 238.7324039657 3.8592289859972397 -3.4471688425680864 -5.403508518594367 0 0 0
3 1 0 238.7324039657 4.1259811589561535 -3.238668620633426 -4.445623030675706 0 0 0
4 1 0 238.7324039657 4.674864484975148 -3.033956678417328 -3.59572123592387 0 0 0
5 1 0 238.7324039657 5.265969561011899 -2.9172640684834783 -2.667567944139157 0 0 0
6 1 0 238.7324039657 5.499112767458738 -2.656731936218685 -1.721920964976582 0 0 0
7 1 0 238.7324039657 6.3031744326 -2.2987959205 -0.6179449271 0 0 0
8 1 0 238.7324039657 6.9166825231 -2.1720350919 0.5026608531 0 0 0
9 1 0 238.7324039657 6.971247958473148 -1.9939359937353704 1.7933894163086834 0 0 0
10 1 0 238.7324039657 7.0308270520268525 -1.6917689881646294 2.7083908212913164 0 0 0

Velocities

1 -2.319835981943605e-05 -2.135799718072146e-05 -0.0001297806549588732 0 0 0
2 -6.980547826077849e-05 -5.1336140289272106e-05 -0.00020418857958119226 0 0 0
3 -5.3287710056117914e-05 1.8133127859895114e-05 0.00010744849195157807 0 0 0
4 0.00010275024248308665 4.596532941030703e-05 0.00015815217144047675 0 0 0
5 -4.877607976925127e-05 -9.456685413308464e-05 -0.00030607791029576143 0 0 0
6 9.231738542249704e-05 0.00010316253433287605 0.00037444648144377223 0 0 0
7 0 0 0 0 0 0
8 0 0 0 0 0 0
9 -4.745361213535925e-05 -0.0002406702590990532 -0.0007287811744939617 0 0 0
10 4.745361213535925e-05 0.0002406702590990532 0.0007287811744939617 0 0 0

Ellipsoids

