LAMMPS data file via write_data, version 7 Feb 2024, timestep = 250000, units = lj

10 atoms
1 atom types
0 ellipsoids

3 8 xlo xhi
-4 0 ylo yhi
-7 3 zlo zhi

Atoms # ellipsoid/kk

2 1 0 238.7324039657 3.112965928253634 -3.958550581275565 -6.636774558105619 0 0 0
3 1 0 238.7324039657 6.156721328939848 -3.6758877896597117 -5.402614192752359 -1 0 0
4 1 0 238.7324039657 4.7386566380350805 -2.019129997994745 -3.5996618385875507 0 0 0
10 1 0 238.7324039657 7.371288409500381 -0.12807798776720553 -2.3260710632657213 0 0 1
6 1 0 238.7324039657 7.042482944871902 -3.076489470797084 -2.034073381547395 -1 0 0
5 1 0 238.7324039657 3.770305461706222 -2.8679224490249884 -0.11145832127683379 1 0 0
1 1 0 238.7324039657 7.922987155175338 -0.744627348135534 -0.469647788433144 -1 -1 -1
9 1 0 238.7324039657 6.814790966529519 -3.265604539347535 1.5851859867681235 0 0 0
7 1 0 238.7324039657 6.681747240024242 -1.3754084425992557 -1.933080828148514 0 0 0
8 1 0 238.7324039657 5.707217587462054 -1.9581033877431717 1.0298281473076176 1 0 0

Velocities

2 -0.03010156484382733 -0.020580835943639533 -0.048675064263501225 0 0 0
3 -0.12374025765457747 -0.018832699047789486 -0.0426750248480654 0 0 0
4 0.002098224115037063 0.04197027893481796 -0.0011953172744485602 0 0 0
10 0.03817359537670744 -0.06560493356099645 0.14823038607330966 0 0 0
6 -0.189162130863001 0.10289608006309021 0.01652550707456872 0 0 0
5 0.1501106009102436 0.08620578935666134 0.06781476560451699 0 0 0
1 -0.03458066565139787 -0.12954766288073763 -0.12301080916733509 0 0 0
9 -0.00586324544477289 -0.05026868159589121 0.004189176372801102 0 0 0
7 0.017599032494079753 0.042670843684483734 -0.06081865283477875 0 0 0
8 0.1754664115615059 0.011091820990000015 0.039615033262937895 0 0 0

Ellipsoids

