ITEM: TIMESTEP
0
ITEM: NUMBER OF ATOMS
10
ITEM: BOX BOUNDS pp pp pp
3.0000000000000000e+00 8.0000000000000000e+00
-4.0000000000000000e+00 0.0000000000000000e+00
-7.0000000000000000e+00 3.0000000000000000e+00
ITEM: ATOMS id type xs ys zs
1 1 0.134415 0.095131 0.0549478
2 1 0.171846 0.138208 0.159649
3 1 0.225196 0.190333 0.255438
4 1 0.334973 0.241511 0.340428
5 1 0.453194 0.270684 0.433243
6 1 0.499823 0.335817 0.527808
7 1 0.660635 0.425301 0.638206
8 1 0.783337 0.456991 0.750266
9 1 0.79425 0.501516 0.879339
10 1 0.806165 0.577058 0.970839
ITEM: TIMESTEP
1000
ITEM: NUMBER OF ATOMS
10
ITEM: BOX BOUNDS pp pp pp
3.0000000000000000e+00 8.0000000000000000e+00
-4.0000000000000000e+00 0.0000000000000000e+00
-7.0000000000000000e+00 3.0000000000000000e+00
ITEM: ATOMS id type xs ys zs
1 1 0.134392 0.0951043 0.0548828
2 1 0.171776 0.138144 0.159548
3 1 0.225143 0.190355 0.255491
4 1 0.335075 0.241568 0.340507
5 1 0.453146 0.270567 0.433092
6 1 0.499914 0.335945 0.527993
7 1 0.660635 0.425301 0.638206
8 1 0.783337 0.456991 0.750266
9 1 0.794203 0.501221 0.878982
10 1 0.806212 0.577353 0.971197
ITEM: TIMESTEP
2000
ITEM: NUMBER OF ATOMS
10
ITEM: BOX BOUNDS pp pp pp
3.0000000000000000e+00 8.0000000000000000e+00
-4.0000000000000000e+00 0.0000000000000000e+00
-7.0000000000000000e+00 3.0000000000000000e+00
ITEM: ATOMS id type xs ys zs
1 1 0.134322 0.0950238 0.054687
2 1 0.171573 0.137957 0.159252
3 1 0.224981 0.19042 0.255645
4 1 0.335375 0.241738 0.340737
5 1 0.453017 0.27023 0.432661
6 1 0.500179 0.336315 0.528531
7 1 0.660635 0.425301 0.638206
8 1 0.783337 0.456991 0.750266
9 1 0.794073 0.500397 0.877983
10 1 0.806342 0.578177 0.972195
ITEM: TIMESTEP
3000
ITEM: NUMBER OF ATOMS
10
ITEM: BOX BOUNDS pp pp pp
3.0000000000000000e+00 8.0000000000000000e+00
-4.0000000000000000e+00 0.0000000000000000e+00
-7.0000000000000000e+00 3.0000000000000000e+00
ITEM: ATOMS id type xs ys zs
1 1 0.134204 0.0948886 0.054358
2 1 0.171249 0.13766 0.158787
3 1 0.224705 0.190518 0.255886
4 1 0.335853 0.242013 0.341104
5 1 0.452843 0.269711 0.43201
6 1 0.500592 0.336893 0.529369
7 1 0.660635 0.425301 0.638206
8 1 0.783337 0.456991 0.750266
9 1 0.793882 0.499184 0.876514
10 1 0.806533 0.57939 0.973664
ITEM: TIMESTEP
4000
ITEM: NUMBER OF ATOMS
10
ITEM: BOX BOUNDS pp pp pp
3.0000000000000000e+00 8.0000000000000000e+00
-4.0000000000000000e+00 0.0000000000000000e+00
-7.0000000000000000e+00 3.0000000000000000e+00
ITEM: ATOMS id type xs ys zs
1 1 0.134038 0.0946973 0.0538921
2 1 0.170824 0.137271 0.158186
3 1 0.224311 0.190641 0.256193
4 1 0.336476 0.242384 0.34158
5 1 0.452677 0.269057 0.431218
6 1 0.501121 0.337634 0.530444
7 1 0.660635 0.425301 0.638206
8 1 0.783337 0.456991 0.750266
9 1 0.793652 0.497727 0.874749
10 1 0.806763 0.580847 0.975429
ITEM: TIMESTEP
5000
ITEM: NUMBER OF ATOMS
10
ITEM: BOX BOUNDS pp pp pp
3.0000000000000000e+00 8.0000000000000000e+00
-4.0000000000000000e+00 0.0000000000000000e+00
-7.0000000000000000e+00 3.0000000000000000e+00
ITEM: ATOMS id type xs ys zs
1 1 0.133823 0.0944487 0.0532857
2 1 0.170318 0.136809 0.157488
3 1 0.223793 0.190776 0.256545
4 1 0.337196 0.242835 0.342129
5 1 0.452581 0.268319 0.430372
6 1 0.501735 0.338495 0.531693
7 1 0.660635 0.425301 0.638206
8 1 0.783337 0.456991 0.750266
9 1 0.7934 0.496133 0.872818
10 1 0.807015 0.582441 0.97736
ITEM: TIMESTEP
6000
ITEM: NUMBER OF ATOMS
10
ITEM: BOX BOUNDS pp pp pp
3.0000000000000000e+00 8.0000000000000000e+00
-4.0000000000000000e+00 0.0000000000000000e+00
-7.0000000000000000e+00 3.0000000000000000e+00
ITEM: ATOMS id type xs ys zs
1 1 0.133557 0.0941418 0.0525359
2 1 0.169755 0.136297 0.156732
3 1 0.22315 0.190913 0.256922
4 1 0.337953 0.243351 0.342704
5 1 0.452623 0.26754 0.429555
6 1 0.502408 0.339441 0.533064
7 1 0.660635 0.425301 0.638206
8 1 0.783337 0.456991 0.750266
9 1 0.793139 0.494474 0.87081
10 1 0.807276 0.584099 0.979368
ITEM: TIMESTEP
7000
ITEM: NUMBER OF ATOMS
10
ITEM: BOX BOUNDS pp pp pp
3.0000000000000000e+00 8.0000000000000000e+00
-4.0000000000000000e+00 0.0000000000000000e+00
-7.0000000000000000e+00 3.0000000000000000e+00
ITEM: ATOMS id type xs ys zs
1 1 0.133241 0.0937764 0.0516416
2 1 0.169151 0.13575 0.155952
3 1 0.222382 0.191044 0.257307
4 1 0.33868 0.243913 0.343254
5 1 0.452872 0.266756 0.428842
6 1 0.503121 0.340443 0.534518
7 1 0.660635 0.425301 0.638206
8 1 0.783337 0.456991 0.750266
9 1 0.792876 0.49281 0.868794
10 1 0.807539 0.585764 0.981384
ITEM: TIMESTEP
8000
ITEM: NUMBER OF ATOMS
10
ITEM: BOX BOUNDS pp pp pp
3.0000000000000000e+00 8.0000000000000000e+00
-4.0000000000000000e+00 0.0000000000000000e+00
-7.0000000000000000e+00 3.0000000000000000e+00
ITEM: ATOMS id type xs ys zs
1 1 0.132876 0.0933536 0.0506047
2 1 0.168522 0.135184 0.155173
3 1 0.221489 0.191162 0.257686
4 1 0.339304 0.244506 0.343725
5 1 0.45341 0.266015 0.42833
6 1 0.503845 0.341463 0.535995
7 1 0.660635 0.425301 0.638206
8 1 0.783337 0.456991 0.750266
9 1 0.792614 0.491146 0.866778
10 1 0.807801 0.587428 0.9834
ITEM: TIMESTEP
9000
ITEM: NUMBER OF ATOMS
10
ITEM: BOX BOUNDS pp pp pp
3.0000000000000000e+00 8.0000000000000000e+00
-4.0000000000000000e+00 0.0000000000000000e+00
-7.0000000000000000e+00 3.0000000000000000e+00
ITEM: ATOMS id type xs ys zs
1 1 0.132464 0.0928758 0.04943
2 1 0.16788 0.134609 0.154414
3 1 0.220474 0.191261 0.258049
4 1 0.339765 0.245116 0.344073
5 1 0.454294 0.265339 0.428074
6 1 0.504569 0.342483 0.537472
7 1 0.660635 0.425301 0.638206
8 1 0.783337 0.456991 0.750266
9 1 0.792351 0.489482 0.864763
10 1 0.808064 0.589092 0.985415
ITEM: TIMESTEP
10000
ITEM: NUMBER OF ATOMS
10
ITEM: BOX BOUNDS pp pp pp
3.0000000000000000e+00 8.0000000000000000e+00
-4.0000000000000000e+00 0.0000000000000000e+00
-7.0000000000000000e+00 3.0000000000000000e+00
ITEM: ATOMS id type xs ys zs
1 1 0.132009 0.0923465 0.048126
2 1 0.167231 0.134032 0.153687
3 1 0.219337 0.191336 0.258386
4 1 0.340026 0.245738 0.344273
5 1 0.45555 0.264729 0.428092
6 1 0.505293 0.343502 0.53895
7 1 0.660635 0.425301 0.638206
8 1 0.783337 0.456991 0.750266
9 1 0.792089 0.487818 0.862747
10 1 0.808326 0.590756 0.987431
ITEM: TIMESTEP
11000
ITEM: NUMBER OF ATOMS
10
ITEM: BOX BOUNDS pp pp pp
3.0000000000000000e+00 8.0000000000000000e+00
-4.0000000000000000e+00 0.0000000000000000e+00
-7.0000000000000000e+00 3.0000000000000000e+00
ITEM: ATOMS id type xs ys zs
1 1 0.131514 0.0917704 0.0467035
2 1 0.166581 0.133457 0.152996
3 1 0.218075 0.191382 0.258688
4 1 0.340083 0.246374 0.344321
5 1 0.457176 0.264179 0.428378
6 1 0.506018 0.344522 0.540427
7 1 0.660635 0.425301 0.638206
8 1 0.783336 0.456989 0.750257
9 1 0.791827 0.486156 0.86074
10 1 0.808589 0.59242 0.989447
ITEM: TIMESTEP
12000
ITEM: NUMBER OF ATOMS
10
ITEM: BOX BOUNDS pp pp pp
3.0000000000000000e+00 8.0000000000000000e+00
-4.0000000000000000e+00 0.0000000000000000e+00
-7.0000000000000000e+00 3.0000000000000000e+00
ITEM: ATOMS id type xs ys zs
1 1 0.130984 0.091153 0.0451756
2 1 0.165931 0.132884 0.15234
3 1 0.216688 0.191394 0.258947
4 1 0.33996 0.24703 0.344238
5 1 0.459142 0.263681 0.428908
6 1 0.506742 0.345542 0.541905
7 1 0.660635 0.425301 0.638206
8 1 0.78333 0.456969 0.750181
9 1 0.79157 0.484512 0.858801
10 1 0.808851 0.594084 0.991462
ITEM: TIMESTEP
13000
ITEM: NUMBER OF ATOMS
10
ITEM: BOX BOUNDS pp pp pp
3.0000000000000000e+00 8.0000000000000000e+00
-4.0000000000000000e+00 0.0000000000000000e+00
-7.0000000000000000e+00 3.0000000000000000e+00
ITEM: ATOMS id type xs ys zs
1 1 0.130424 0.0905 0.0435564
2 1 0.16529 0.132322 0.151731
3 1 0.215164 0.191358 0.259142
4 1 0.339705 0.247717 0.344058
5 1 0.461398 0.263224 0.429644
6 1 0.507466 0.346561 0.543382
7 1 0.660635 0.425301 0.638206
8 1 0.783316 0.456922 0.75
9 1 0.791322 0.482895 0.856966
10 1 0.809114 0.595748 0.993478
ITEM: TIMESTEP
14000
ITEM: NUMBER OF ATOMS
10
ITEM: BOX BOUNDS pp pp pp
3.0000000000000000e+00 8.0000000000000000e+00
-4.0000000000000000e+00 0.0000000000000000e+00
-7.0000000000000000e+00 3.0000000000000000e+00
ITEM: ATOMS id type xs ys zs
1 1 0.129839 0.0898172 0.0418601
2 1 0.164673 0.13179 0.151197
3 1 0.213485 0.191254 0.259232
4 1 0.339371 0.248445 0.34382
5 1 0.463887 0.262797 0.430544
6 1 0.508191 0.347581 0.544859
7 1 0.660635 0.425301 0.638206
8 1 0.783292 0.456843 0.749682
9 1 0.791083 0.48131 0.855268
10 1 0.809376 0.597412 0.995494
ITEM: TIMESTEP
15000
ITEM: NUMBER OF ATOMS
10
ITEM: BOX BOUNDS pp pp pp
3.0000000000000000e+00 8.0000000000000000e+00
-4.0000000000000000e+00 0.0000000000000000e+00
-7.0000000000000000e+00 3.0000000000000000e+00
ITEM: ATOMS id type xs ys zs
1 1 0.12924 0.0891169 0.0401182
2 1 0.164071 0.131275 0.150709
3 1 0.211653 0.19108 0.25922
4 1 0.339011 0.249221 0.34356
5 1 0.466556 0.262391 0.43157
6 1 0.508915 0.3486 0.546337
7 1 0.660635 0.425301 0.638206
8 1 0.783255 0.456723 0.749191
9 1 0.790858 0.479766 0.853744
10 1 0.809639 0.599076 0.997509
ITEM: TIMESTEP
16000
ITEM: NUMBER OF ATOMS
10
ITEM: BOX BOUNDS pp pp pp
3.0000000000000000e+00 8.0000000000000000e+00
-4.0000000000000000e+00 0.0000000000000000e+00
-7.0000000000000000e+00 3.0000000000000000e+00
ITEM: ATOMS id type xs ys zs
1 1 0.128641 0.088416 0.038375
2 1 0.163469 0.13076 0.150222
3 1 0.209677 0.19084 0.259112
4 1 0.338665 0.250049 0.343304
5 1 0.469357 0.261998 0.432686
6 1 0.509639 0.34962 0.547814
7 1 0.660635 0.425301 0.638206
8 1 0.783204 0.456558 0.748495
9 1 0.790647 0.478267 0.852424
10 1 0.809901 0.600741 0.999525
ITEM: TIMESTEP
17000
ITEM: NUMBER OF ATOMS
10
ITEM: BOX BOUNDS pp pp pp
3.0000000000000000e+00 8.0000000000000000e+00
-4.0000000000000000e+00 0.0000000000000000e+00
-7.0000000000000000e+00 3.0000000000000000e+00
ITEM: ATOMS id type xs ys zs
1 1 0.128041 0.0877152 0.0366317
2 1 0.162866 0.130246 0.149735
3 1 0.207565 0.190537 0.258915
4 1 0.338363 0.250932 0.343075
5 1 0.472248 0.261614 0.433864
6 1 0.510363 0.35064 0.549292
7 1 0.660635 0.425301 0.638206
8 1 0.783136 0.456345 0.74757
9 1 0.790452 0.476815 0.851333
10 1 0.810164 0.602405 1.00154
ITEM: TIMESTEP
18000
ITEM: NUMBER OF ATOMS
10
ITEM: BOX BOUNDS pp pp pp
3.0000000000000000e+00 8.0000000000000000e+00
-4.0000000000000000e+00 0.0000000000000000e+00
-7.0000000000000000e+00 3.0000000000000000e+00
ITEM: ATOMS id type xs ys zs
1 1 0.127442 0.0870143 0.0348884
2 1 0.162264 0.129731 0.149249
3 1 0.205329 0.190178 0.258639
4 1 0.338166 0.251869 0.342913
5 1 0.475158 0.261231 0.435056
6 1 0.511088 0.351659 0.550769
7 1 0.660635 0.425301 0.638206
8 1 0.783051 0.456086 0.74641
9 1 0.790275 0.47541 0.850478
10 1 0.810426 0.604069 1.00356
ITEM: TIMESTEP
19000
ITEM: NUMBER OF ATOMS
10
ITEM: BOX BOUNDS pp pp pp
3.0000000000000000e+00 8.0000000000000000e+00
-4.0000000000000000e+00 0.0000000000000000e+00
-7.0000000000000000e+00 3.0000000000000000e+00
ITEM: ATOMS id type xs ys zs
1 1 0.126842 0.0863135 0.0331451
2 1 0.161662 0.129217 0.148762
3 1 0.202985 0.189768 0.258294
4 1 0.338077 0.252858 0.342819
5 1 0.478068 0.260848 0.436247
6 1 0.511812 0.352679 0.552247
7 1 0.660635 0.425301 0.638206
8 1 0.78295 0.455785 0.745024
9 1 0.790112 0.474047 0.849848
10 1 0.810689 0.605733 1.00557
ITEM: TIMESTEP
20000
ITEM: NUMBER OF ATOMS
10
ITEM: BOX BOUNDS pp pp pp
3.0000000000000000e+00 8.0000000000000000e+00
-4.0000000000000000e+00 0.0000000000000000e+00
-7.0000000000000000e+00 3.0000000000000000e+00
ITEM: ATOMS id type xs ys zs
1 1 0.126242 0.0856126 0.0314018
2 1 0.16106 0.128702 0.148275
3 1 0.200549 0.189316 0.257891
4 1 0.338079 0.253888 0.342783
5 1 0.480978 0.260466 0.437438
6 1 0.512536 0.353699 0.553724
7 1 0.660635 0.425301 0.638206
8 1 0.782836 0.455448 0.743435
9 1 0.789964 0.47272 0.849421
10 1 0.810951 0.607397 1.00759
ITEM: TIMESTEP
21000
ITEM: NUMBER OF ATOMS
10
ITEM: BOX BOUNDS pp pp pp
3.0000000000000000e+00 8.0000000000000000e+00
-4.0000000000000000e+00 0.0000000000000000e+00
-7.0000000000000000e+00 3.0000000000000000e+00
ITEM: ATOMS id type xs ys zs
1 1 0.125643 0.0849117 0.0296586
2 1 0.160458 0.128188 0.147788
3 1 0.198075 0.188845 0.257464
4 1 0.338121 0.254938 0.342771
5 1 0.483889 0.260083 0.43863
6 1 0.51326 0.354718 0.555201
7 1 0.660635 0.425301 0.638206
8 1 0.782711 0.455084 0.741678
9 1 0.789827 0.471419 0.849163
10 1 0.811214 0.609061 1.0096
ITEM: TIMESTEP
22000
ITEM: NUMBER OF ATOMS
10
ITEM: BOX BOUNDS pp pp pp
3.0000000000000000e+00 8.0000000000000000e+00
-4.0000000000000000e+00 0.0000000000000000e+00
-7.0000000000000000e+00 3.0000000000000000e+00
ITEM: ATOMS id type xs ys zs
1 1 0.125043 0.0842109 0.0279153
2 1 0.159856 0.127673 0.147302
3 1 0.1956 0.188374 0.257038
4 1 0.338163 0.255987 0.342759
5 1 0.486799 0.2597 0.439821
6 1 0.513985 0.355738 0.556679
7 1 0.660635 0.425301 0.638206
8 1 0.782576 0.4547 0.739787
9 1 0.789699 0.47014 0.849039
10 1 0.811476 0.610725 1.01162
ITEM: TIMESTEP
23000
ITEM: NUMBER OF ATOMS
10
ITEM: BOX BOUNDS pp pp pp
3.0000000000000000e+00 8.0000000000000000e+00
-4.0000000000000000e+00 0.0000000000000000e+00
-7.0000000000000000e+00 3.0000000000000000e+00
ITEM: ATOMS id type xs ys zs
1 1 0.124444 0.08351 0.026172
2 1 0.159254 0.127159 0.146815
3 1 0.193125 0.187904 0.256611
4 1 0.338205 0.257036 0.342747
5 1 0.489709 0.259318 0.441012
6 1 0.514703 0.356755 0.558153
7 1 0.660641 0.425304 0.638209
8 1 0.782435 0.454301 0.737795
9 1 0.789578 0.468874 0.849014
10 1 0.811739 0.612389 1.01363
ITEM: TIMESTEP
24000
ITEM: NUMBER OF ATOMS
10
ITEM: BOX BOUNDS pp pp pp
3.0000000000000000e+00 8.0000000000000000e+00
-4.0000000000000000e+00 0.0000000000000000e+00
-7.0000000000000000e+00 3.0000000000000000e+00
ITEM: ATOMS id type xs ys zs
1 1 0.123844 0.0828092 0.0244287
2 1 0.158652 0.126644 0.146328
3 1 0.19065 0.187433 0.256184
4 1 0.338247 0.258085 0.342735
5 1 0.492619 0.258935 0.442204
6 1 0.515349 0.357737 0.559587
7 1 0.660719 0.425341 0.638252
8 1 0.78229 0.453895 0.735743
9 1 0.78946 0.467617 0.849051
10 1 0.812001 0.614053 1.01565
ITEM: TIMESTEP
25000
ITEM: NUMBER OF ATOMS
10
ITEM: BOX BOUNDS pp pp pp
3.0000000000000000e+00 8.0000000000000000e+00
-4.0000000000000000e+00 0.0000000000000000e+00
-7.0000000000000000e+00 3.0000000000000000e+00
ITEM: ATOMS id type xs ys zs
1 1 0.123244 0.0821083 0.0226854
2 1 0.15805 0.12613 0.145841
3 1 0.188175 0.186962 0.255757
4 1 0.338289 0.259135 0.342723
5 1 0.495529 0.258552 0.443395
6 1 0.515883 0.358669 0.560962
7 1 0.660909 0.425429 0.638355
8 1 0.782145 0.453487 0.733685
9 1 0.789343 0.46636 0.849093
10 1 0.812264 0.615718 1.01767
ITEM: TIMESTEP
26000
ITEM: NUMBER OF ATOMS
10
ITEM: BOX BOUNDS pp pp pp
3.0000000000000000e+00 8.0000000000000000e+00
-4.0000000000000000e+00 0.0000000000000000e+00
-7.0000000000000000e+00 3.0000000000000000e+00
ITEM: ATOMS id type xs ys zs
1 1 0.122645 0.0814074 0.0209422
2 1 0.157448 0.125615 0.145355
3 1 0.185701 0.186491 0.255331
4 1 0.338331 0.260184 0.342711
5 1 0.498439 0.25817 0.444586
6 1 0.516283 0.359538 0.562264
7 1 0.661229 0.425579 0.638527
8 1 0.782004 0.453081 0.731631
9 1 0.789226 0.465103 0.849135
10 1 0.812526 0.617382 1.01968
ITEM: TIMESTEP
27000
ITEM: NUMBER OF ATOMS
10
ITEM: BOX BOUNDS pp pp pp
3.0000000000000000e+00 8.0000000000000000e+00
-4.0000000000000000e+00 0.0000000000000000e+00
-7.0000000000000000e+00 3.0000000000000000e+00
ITEM: ATOMS id type xs ys zs
1 1 0.122045 0.0807066 0.0191989
2 1 0.156846 0.125101 0.144868
3 1 0.183226 0.18602 0.254904
4 1 0.338373 0.261233 0.342699
5 1 0.50135 0.257787 0.445778
6 1 0.516524 0.360335 0.563483
7 1 0.661644 0.425786 0.638732
8 1 0.781928 0.452689 0.729626
9 1 0.789108 0.463847 0.849177
10 1 0.812789 0.619046 1.0217
ITEM: TIMESTEP
28000
ITEM: NUMBER OF ATOMS
10
ITEM: BOX BOUNDS pp pp pp
3.0000000000000000e+00 8.0000000000000000e+00
-4.0000000000000000e+00 0.0000000000000000e+00
-7.0000000000000000e+00 3.0000000000000000e+00
ITEM: ATOMS id type xs ys zs
1 1 0.121446 0.0800057 0.0174556
2 1 0.156244 0.124586 0.144381
3 1 0.180751 0.18555 0.254477
4 1 0.338415 0.262282 0.342687
5 1 0.50426 0.257404 0.446969
6 1 0.516587 0.361051 0.564609
7 1 0.662127 0.426049 0.638948
8 1 0.781961 0.452322 0.727704
9 1 0.788991 0.46259 0.849219
10 1 0.813051 0.62071 1.02371
ITEM: TIMESTEP
29000
ITEM: NUMBER OF ATOMS
10
ITEM: BOX BOUNDS pp pp pp
3.0000000000000000e+00 8.0000000000000000e+00
-4.0000000000000000e+00 0.0000000000000000e+00
-7.0000000000000000e+00 3.0000000000000000e+00
ITEM: ATOMS id type xs ys zs
1 1 0.120846 0.0793049 0.0157123
2 1 0.155642 0.124071 0.143894
3 1 0.178276 0.185079 0.25405
4 1 0.338457 0.263332 0.342675
5 1 0.50717 0.257022 0.44816
6 1 0.516452 0.361679 0.565635
7 1 0.662655 0.426367 0.639151
8 1 0.782147 0.451988 0.725896
9 1 0.788874 0.461333 0.849261
10 1 0.813314 0.622374 1.02573
ITEM: TIMESTEP
30000
ITEM: NUMBER OF ATOMS
10
ITEM: BOX BOUNDS pp pp pp
3.0000000000000000e+00 8.0000000000000000e+00
-4.0000000000000000e+00 0.0000000000000000e+00
-7.0000000000000000e+00 3.0000000000000000e+00
ITEM: ATOMS id type xs ys zs
1 1 0.120247 0.078604 0.013969
2 1 0.15504 0.123557 0.143408
3 1 0.175801 0.184608 0.253624
4 1 0.338499 0.264381 0.342664
5 1 0.51008 0.256639 0.449352
6 1 0.516106 0.362214 0.566554
7 1 0.663187 0.426734 0.63931
8 1 0.78254 0.451698 0.724237
9 1 0.788756 0.460077 0.849302
10 1 0.813576 0.624038 1.02774
ITEM: TIMESTEP
31000
ITEM: NUMBER OF ATOMS
10
ITEM: BOX BOUNDS pp pp pp
3.0000000000000000e+00 8.0000000000000000e+00
-4.0000000000000000e+00 0.0000000000000000e+00
-7.0000000000000000e+00 3.0000000000000000e+00
ITEM: ATOMS id type xs ys zs
1 1 0.119647 0.0779031 0.0122258
2 1 0.154438 0.123042 0.142921
3 1 0.173327 0.184137 0.253197
4 1 0.338541 0.26543 0.342652
5 1 0.51299 0.256256 0.450543
6 1 0.515539 0.362651 0.567364
7 1 0.663673 0.427142 0.639389
8 1 0.7832 0.451465 0.722768
9 1 0.788639 0.45882 0.849344
10 1 0.813838 0.625702 1.02976
ITEM: TIMESTEP
32000
ITEM: NUMBER OF ATOMS
10
ITEM: BOX BOUNDS pp pp pp
3.0000000000000000e+00 8.0000000000000000e+00
-4.0000000000000000e+00 0.0000000000000000e+00
-7.0000000000000000e+00 3.0000000000000000e+00
ITEM: ATOMS id type xs ys zs
1 1 0.119047 0.0772023 0.0104825
2 1 0.153836 0.122528 0.142434
3 1 0.170852 0.183666 0.25277
4 1 0.338583 0.266479 0.34264
5 1 0.515901 0.255873 0.451734
6 1 0.514744 0.36299 0.568063
7 1 0.66406 0.427584 0.63935
8 1 0.784187 0.451298 0.721527
9 1 0.788522 0.457563 0.849386
10 1 0.814101 0.627366 1.03178
ITEM: TIMESTEP
33000
ITEM: NUMBER OF ATOMS
10
ITEM: BOX BOUNDS pp pp pp
3.0000000000000000e+00 8.0000000000000000e+00
-4.0000000000000000e+00 0.0000000000000000e+00
-7.0000000000000000e+00 3.0000000000000000e+00
ITEM: ATOMS id type xs ys zs
1 1 0.118448 0.0765014 0.00873919
2 1 0.153234 0.122013 0.141947
3 1 0.168377 0.183195 0.252343
4 1 0.338625 0.267529 0.342628
5 1 0.518811 0.255491 0.452926
6 1 0.513715 0.363227 0.568651
7 1 0.664305 0.428051 0.639167
8 1 0.785549 0.451204 0.720543
9 1 0.788405 0.456306 0.849428
10 1 0.814363 0.62903 1.03379
ITEM: TIMESTEP
34000
ITEM: NUMBER OF ATOMS
10
ITEM: BOX BOUNDS pp pp pp
3.0000000000000000e+00 8.0000000000000000e+00
-4.0000000000000000e+00 0.0000000000000000e+00
-7.0000000000000000e+00 3.0000000000000000e+00
ITEM: ATOMS id type xs ys zs
1 1 0.117848 0.0758006 0.00699591
2 1 0.152632 0.121499 0.141461
3 1 0.165902 0.182725 0.251917
4 1 0.338667 0.268578 0.342616
5 1 0.521721 0.255108 0.454117
6 1 0.512451 0.363363 0.569129
7 1 0.664387 0.428545 0.638825
8 1 0.787311 0.451187 0.719827
9 1 0.788287 0.45505 0.84947
10 1 0.814626 0.630694 1.03581
ITEM: TIMESTEP
35000
ITEM: NUMBER OF ATOMS
10
ITEM: BOX BOUNDS pp pp pp
3.0000000000000000e+00 8.0000000000000000e+00
-4.0000000000000000e+00 0.0000000000000000e+00
-7.0000000000000000e+00 3.0000000000000000e+00
ITEM: ATOMS id type xs ys zs
1 1 0.117249 0.0750997 0.00525263
2 1 0.15203 0.120984 0.140974
3 1 0.163427 0.182254 0.25149
4 1 0.338709 0.269627 0.342604
5 1 0.524631 0.254725 0.455308
6 1 0.510946 0.363396 0.569496
7 1 0.664316 0.429069 0.638335
8 1 0.789467 0.451243 0.71937
9 1 0.78817 0.453793 0.849512
10 1 0.814888 0.632359 1.03782
ITEM: TIMESTEP
36000
ITEM: NUMBER OF ATOMS
10
ITEM: BOX BOUNDS pp pp pp
3.0000000000000000e+00 8.0000000000000000e+00
-4.0000000000000000e+00 0.0000000000000000e+00
-7.0000000000000000e+00 3.0000000000000000e+00
ITEM: ATOMS id type xs ys zs
1 1 0.116649 0.0743988 0.00350935
2 1 0.151428 0.12047 0.140487
3 1 0.160953 0.181783 0.251063
4 1 0.338751 0.270677 0.342592
5 1 0.527541 0.254343 0.4565
6 1 0.509199 0.363325 0.569754
7 1 0.664128 0.429633 0.637721
8 1 0.79198 0.451362 0.719145
9 1 0.788053 0.452536 0.849554
10 1 0.815151 0.634023 1.03984
ITEM: TIMESTEP
37000
ITEM: NUMBER OF ATOMS
10
ITEM: BOX BOUNDS pp pp pp
3.0000000000000000e+00 8.0000000000000000e+00
-4.0000000000000000e+00 0.0000000000000000e+00
-7.0000000000000000e+00 3.0000000000000000e+00
ITEM: ATOMS id type xs ys zs
1 1 0.11605 0.073698 0.00176607
2 1 0.150826 0.119955 0.14
3 1 0.158478 0.181312 0.250636
4 1 0.338793 0.271726 0.34258
5 1 0.530451 0.25396 0.457691
6 1 0.507212 0.363151 0.569907
7 1 0.663877 0.430248 0.637018
8 1 0.794798 0.451533 0.719115
9 1 0.787936 0.45128 0.849596
10 1 0.815413 0.635687 1.04185
ITEM: TIMESTEP
38000
ITEM: NUMBER OF ATOMS
10
ITEM: BOX BOUNDS pp pp pp
3.0000000000000000e+00 8.0000000000000000e+00
-4.0000000000000000e+00 0.0000000000000000e+00
-7.0000000000000000e+00 3.0000000000000000e+00
ITEM: ATOMS id type xs ys zs
1 1 0.11545 0.0729971 2.27918e-05
2 1 0.150224 0.119441 0.139514
3 1 0.156003 0.180841 0.25021
4 1 0.338835 0.272775 0.342568
5 1 0.533362 0.253577 0.458882
6 1 0.504987 0.362875 0.569958
7 1 0.663617 0.430925 0.636264
8 1 0.797861 0.451744 0.719238
9 1 0.787818 0.450023 0.849638
10 1 0.815676 0.637351 1.04387
ITEM: TIMESTEP
39000
ITEM: NUMBER OF ATOMS
10
ITEM: BOX BOUNDS pp pp pp
3.0000000000000000e+00 8.0000000000000000e+00
-4.0000000000000000e+00 0.0000000000000000e+00
-7.0000000000000000e+00 3.0000000000000000e+00
ITEM: ATOMS id type xs ys zs
1 1 0.11485 0.0722963 -0.00172049
2 1 0.149622 0.118926 0.139027
3 1 0.153528 0.180371 0.249783
4 1 0.338877 0.273824 0.342556
5 1 0.536272 0.253195 0.460074
6 1 0.502535 0.362502 0.569915
7 1 0.663396 0.43167 0.635487
8 1 0.801113 0.451984 0.719478
9 1 0.787701 0.448766 0.849679
10 1 0.815938 0.639015 1.04588
ITEM: TIMESTEP
40000
ITEM: NUMBER OF ATOMS
10
ITEM: BOX BOUNDS pp pp pp
3.0000000000000000e+00 8.0000000000000000e+00
-4.0000000000000000e+00 0.0000000000000000e+00
-7.0000000000000000e+00 3.0000000000000000e+00
ITEM: ATOMS id type xs ys zs
1 1 0.114251 0.0715954 -0.00346377
2 1 0.14902 0.118412 0.13854
3 1 0.151053 0.1799 0.249356
4 1 0.338919 0.274874 0.342544
5 1 0.539182 0.252812 0.461265
6 1 0.499872 0.362039 0.569785
7 1 0.663247 0.432485 0.634712
8 1 0.804505 0.452245 0.719803
9 1 0.787584 0.447509 0.849721
10 1 0.816201 0.640679 1.0479
ITEM: TIMESTEP
41000
ITEM: NUMBER OF ATOMS
10
ITEM: BOX BOUNDS pp pp pp
3.0000000000000000e+00 8.0000000000000000e+00
-4.0000000000000000e+00 0.0000000000000000e+00
-7.0000000000000000e+00 3.0000000000000000e+00
ITEM: ATOMS id type xs ys zs
1 1 0.113651 0.0708945 -0.00520705
2 1 0.148418 0.117897 0.138053
3 1 0.148579 0.179429 0.248929
4 1 0.338961 0.275923 0.342532
5 1 0.542092 0.252429 0.462456
6 1 0.497018 0.361493 0.569579
7 1 0.66319 0.433369 0.633953
8 1 0.807994 0.452519 0.720187
9 1 0.787467 0.446253 0.849763
10 1 0.816463 0.642343 1.04992
ITEM: TIMESTEP
42000
ITEM: NUMBER OF ATOMS
10
ITEM: BOX BOUNDS pp pp pp
3.0000000000000000e+00 8.0000000000000000e+00
-4.0000000000000000e+00 0.0000000000000000e+00
-7.0000000000000000e+00 3.0000000000000000e+00
ITEM: ATOMS id type xs ys zs
1 1 0.113052 0.0701937 -0.00695033
2 1 0.147816 0.117383 0.137567
3 1 0.146104 0.178958 0.248503
4 1 0.339003 0.276972 0.34252
5 1 0.545002 0.252047 0.463647
6 1 0.493998 0.360875 0.569309
7 1 0.66328 0.434322 0.633247
8 1 0.811503 0.452797 0.720584
9 1 0.787349 0.444996 0.849805
10 1 0.816726 0.644007 1.05193
ITEM: TIMESTEP
43000
ITEM: NUMBER OF ATOMS
10
ITEM: BOX BOUNDS pp pp pp
3.0000000000000000e+00 8.0000000000000000e+00
-4.0000000000000000e+00 0.0000000000000000e+00
-7.0000000000000000e+00 3.0000000000000000e+00
ITEM: ATOMS id type xs ys zs
1 1 0.112452 0.0694928 -0.00869361
2 1 0.147214 0.116868 0.13708
3 1 0.143629 0.178487 0.248076
4 1 0.339045 0.278021 0.342508
5 1 0.547912 0.251664 0.464839
6 1 0.490839 0.360197 0.568986
7 1 0.663508 0.435335 0.632593
8 1 0.815013 0.453074 0.72098
9 1 0.787232 0.443739 0.849847
10 1 0.816988 0.645671 1.05395
ITEM: TIMESTEP
44000
ITEM: NUMBER OF ATOMS
10
ITEM: BOX BOUNDS pp pp pp
3.0000000000000000e+00 8.0000000000000000e+00
-4.0000000000000000e+00 0.0000000000000000e+00
-7.0000000000000000e+00 3.0000000000000000e+00
ITEM: ATOMS id type xs ys zs
1 1 0.111853 0.068792 -0.0104369
2 1 0.146612 0.116354 0.136593
3 1 0.141154 0.178016 0.247649
4 1 0.339087 0.279071 0.342496
5 1 0.550823 0.251281 0.46603
6 1 0.487576 0.359473 0.568625
7 1 0.663841 0.436393 0.631978
8 1 0.818522 0.453351 0.721376
9 1 0.787115 0.442483 0.849889
10 1 0.817251 0.647336 1.05596
ITEM: TIMESTEP
45000
ITEM: NUMBER OF ATOMS
10
ITEM: BOX BOUNDS pp pp pp
3.0000000000000000e+00 8.0000000000000000e+00
-4.0000000000000000e+00 0.0000000000000000e+00
-7.0000000000000000e+00 3.0000000000000000e+00
ITEM: ATOMS id type xs ys zs
1 1 0.111253 0.0680911 -0.0121802
2 1 0.14601 0.115839 0.136106
3 1 0.138679 0.177546 0.247222
4 1 0.339129 0.28012 0.342484
5 1 0.553733 0.250899 0.467221
6 1 0.484294 0.358741 0.568257
7 1 0.664193 0.43746 0.63137
8 1 0.822031 0.453629 0.721772
9 1 0.786997 0.441226 0.849931
10 1 0.817513 0.649 1.05798
ITEM: TIMESTEP
46000
ITEM: NUMBER OF ATOMS
10
ITEM: BOX BOUNDS pp pp pp
3.0000000000000000e+00 8.0000000000000000e+00
-4.0000000000000000e+00 0.0000000000000000e+00
-7.0000000000000000e+00 3.0000000000000000e+00
ITEM: ATOMS id type xs ys zs
1 1 0.110653 0.0673902 -0.0139235
2 1 0.145408 0.115325 0.13562
3 1 0.136205 0.177075 0.246796
4 1 0.339171 0.281169 0.342472
5 1 0.556643 0.250516 0.468413
6 1 0.481012 0.35801 0.567889
7 1 0.664545 0.438527 0.630762
8 1 0.825541 0.453906 0.722168
9 1 0.78688 0.439969 0.849973
10 1 0.817776 0.650664 1.05999
ITEM: TIMESTEP
47000
ITEM: NUMBER OF ATOMS
10
ITEM: BOX BOUNDS pp pp pp
3.0000000000000000e+00 8.0000000000000000e+00
-4.0000000000000000e+00 0.0000000000000000e+00
-7.0000000000000000e+00 3.0000000000000000e+00
ITEM: ATOMS id type xs ys zs
1 1 0.110054 0.0666894 -0.0156667
2 1 0.144806 0.11481 0.135133
3 1 0.13373 0.176604 0.246369
4 1 0.339213 0.282218 0.34246
5 1 0.559553 0.250133 0.469604
6 1 0.477729 0.357278 0.567521
7 1 0.664897 0.439593 0.630154
8 1 0.82905 0.454183 0.722564
9 1 0.786763 0.438712 0.850015
10 1 0.818038 0.652328 1.06201
ITEM: TIMESTEP
48000
ITEM: NUMBER OF ATOMS
10
ITEM: BOX BOUNDS pp pp pp
3.0000000000000000e+00 8.0000000000000000e+00
-4.0000000000000000e+00 0.0000000000000000e+00
-7.0000000000000000e+00 3.0000000000000000e+00
ITEM: ATOMS id type xs ys zs
1 1 0.109454 0.0659885 -0.01741
2 1 0.144204 0.114296 0.134646
3 1 0.131255 0.176133 0.245942
4 1 0.339255 0.283268 0.342448
5 1 0.562463 0.24975 0.470795
6 1 0.474447 0.356546 0.567153
7 1 0.665249 0.44066 0.629546
8 1 0.832559 0.45446 0.72296
9 1 0.786646 0.437456 0.850056
10 1 0.818301 0.653992 1.06403
ITEM: TIMESTEP
49000
ITEM: NUMBER OF ATOMS
10
ITEM: BOX BOUNDS pp pp pp
3.0000000000000000e+00 8.0000000000000000e+00
-4.0000000000000000e+00 0.0000000000000000e+00
-7.0000000000000000e+00 3.0000000000000000e+00
ITEM: ATOMS id type xs ys zs
1 1 0.108855 0.0652877 -0.0191533
2 1 0.143601 0.113781 0.134159
3 1 0.12878 0.175662 0.245515
4 1 0.339296 0.284317 0.342436
5 1 0.565373 0.249368 0.471987
6 1 0.471165 0.355814 0.566785
7 1 0.665601 0.441727 0.628937
8 1 0.836069 0.454738 0.723357
9 1 0.786528 0.436199 0.850098
10 1 0.818563 0.655656 1.06604
ITEM: TIMESTEP
50000
ITEM: NUMBER OF ATOMS
10
ITEM: BOX BOUNDS pp pp pp
3.0000000000000000e+00 8.0000000000000000e+00
-4.0000000000000000e+00 0.0000000000000000e+00
-7.0000000000000000e+00 3.0000000000000000e+00
ITEM: ATOMS id type xs ys zs
1 1 0.108255 0.0645868 -0.0208966
2 1 0.142999 0.113267 0.133673
3 1 0.126305 0.175192 0.245089
4 1 0.339338 0.285366 0.342424
5 1 0.568284 0.248985 0.473178
6 1 0.467883 0.355082 0.566417
7 1 0.665953 0.442794 0.628329
8 1 0.839578 0.455015 0.723753
9 1 0.786411 0.434942 0.85014
10 1 0.818826 0.65732 1.06806
ITEM: TIMESTEP
51000
ITEM: NUMBER OF ATOMS
10
ITEM: BOX BOUNDS pp pp pp
3.0000000000000000e+00 8.0000000000000000e+00
-4.0000000000000000e+00 0.0000000000000000e+00
-7.0000000000000000e+00 3.0000000000000000e+00
ITEM: ATOMS id type xs ys zs
1 1 0.107656 0.0638859 -0.0226399
2 1 0.142397 0.112752 0.133186
3 1 0.12383 0.174721 0.244662
4 1 0.33938 0.286415 0.342412
5 1 0.571194 0.248602 0.474369
6 1 0.4646 0.35435 0.566048
7 1 0.666305 0.44386 0.627721
8 1 0.843087 0.455292 0.724149
9 1 0.786294 0.433686 0.850182
10 1 0.819088 0.658984 1.07007
ITEM: TIMESTEP
52000
ITEM: NUMBER OF ATOMS
10
ITEM: BOX BOUNDS pp pp pp
3.0000000000000000e+00 8.0000000000000000e+00
-4.0000000000000000e+00 0.0000000000000000e+00
-7.0000000000000000e+00 3.0000000000000000e+00
ITEM: ATOMS id type xs ys zs
1 1 0.107056 0.0631851 -0.0243831
2 1 0.141795 0.112237 0.132699
3 1 0.121356 0.17425 0.244235
4 1 0.339422 0.287465 0.342401
5 1 0.574104 0.24822 0.475561
6 1 0.461318 0.353619 0.56568
7 1 0.666657 0.444927 0.627113
8 1 0.846597 0.45557 0.724545
9 1 0.786177 0.432429 0.850224
10 1 0.819351 0.660648 1.07209
ITEM: TIMESTEP
53000
ITEM: NUMBER OF ATOMS
10
ITEM: BOX BOUNDS pp pp pp
3.0000000000000000e+00 8.0000000000000000e+00
-4.0000000000000000e+00 0.0000000000000000e+00
-7.0000000000000000e+00 3.0000000000000000e+00
ITEM: ATOMS id type xs ys zs
1 1 0.106456 0.0624842 -0.0261264
2 1 0.141193 0.111723 0.132212
3 1 0.118881 0.173779 0.243808
4 1 0.339464 0.288514 0.342389
5 1 0.577014 0.247837 0.476752
6 1 0.458036 0.352887 0.565312
7 1 0.667009 0.445994 0.626505
8 1 0.850106 0.455847 0.724941
9 1 0.786059 0.431172 0.850266
10 1 0.819613 0.662313 1.0741
ITEM: TIMESTEP
54000
ITEM: NUMBER OF ATOMS
10
ITEM: BOX BOUNDS pp pp pp
3.0000000000000000e+00 8.0000000000000000e+00
-4.0000000000000000e+00 0.0000000000000000e+00
-7.0000000000000000e+00 3.0000000000000000e+00
ITEM: ATOMS id type xs ys zs
1 1 0.105857 0.0617834 -0.0278697