LAMMPS (7 Feb 2024 - Development - patch_21Nov2023-1039-gc99539c864-modified)
KOKKOS mode with Kokkos version 4.2.0 is enabled (../kokkos.cpp:72)
package kokkos
package kokkos comm device
###
# Reference paper:
# K. Kremer and G. S. Grest
# Dynamics of entangled linear polymer melts: A molecular-dynamics simulation
# J Chem Phys 92, 5057 (1990)
###

###
# Box and units  (use LJ units and periodic boundaries)
###

units lj

atom_style ellipsoid

boundary        p p p

###
# Pair interactions require lists of neighbours to be calculated
###
neighbor 3.0 bin
neigh_modify every 1 delay 0 check yes

### Generate RESTART file, SPECIAL format, not a .txt file ###
### Useful if simulation crashes ###
#restart 10000 polymer.restart
#############################

#processors 2 1 1

### READ "REstart" data file ###
#read_restart polymer.restart.10000
######################

read_data lmp_data
Reading data file ...
  orthogonal box = (3 -4 -7) to (8 0 3)
  1 by 1 by 2 MPI processor grid
  reading atoms ...
  10 atoms
  reading velocities ...
  10 velocities
  read_data CPU = 0.002 seconds

### reset timestep ###
reset_timestep 0
######################

###
# Define groups (atom type 1 is group 'all')
###
group all type 1
10 atoms in group all
group polymer type 1
10 atoms in group polymer

###
# Dump configs - "simple dumpings"
###

###
# Dump configs + box coords
###
#dump   1   all   custom   100000   polymer.dump.*  id  x y z  ix iy iz
#dump_modify   1   format line "%d %.5f %.5f %.5f %d %d %d"
dump   id all atom 1000 dump.polymer

###################################################################
# Stiffness term
#
# E = K * (theta-thera0)**2, K>0
#
#angle_style   harmonic
#angle_coeff   1 2.0 120.0
###################################################################

###################################################################
# Pair interaction between non-bonded atoms
#
#  Lennard-Jones 12-6 potential with cutoff:
#  potential E=4epsilon[ (sigma/r)^12 - (sigma/r)^6]  for r<r_cut
#
#  1.12246152962189 = 2^(1/6) is the minimum of the potential

pair_style      lj/cut 1.12246152962189

#
#  pair_coeff for lj/cut, specify 4:
#    * atom type interacting with
#    * atom type
#    * epsilon (energy units)
#    * sigma (distance units)
#

pair_coeff      1 1 1.0 1.1

#
#  pair_modify shift yes adds a constant to the potential such
#  that E(r_cut)=0. Forces remains unchanged.
#

pair_modify     shift yes

###################################################

#comm_modify cutoff 6
#comm_style tiled
#balance 1.2 rcb

###
# Set up fixes
###

fix 1 all   nve   ###NVE ensemble
#fix 2 all   langevin   1.0 1.0   2.0   424242   ###Langevin integrator Tstart Tstop 1/friction rndseed

compute ekin all ke
compute epot all pe
variable ekin equal c_ekin
variable epot equal c_epot
variable etot equal c_ekin+c_epot

fix 5 all print 1 "$(step)  ekin = ${ekin} | epot = ${epot} | etot = ${etot}" screen yes

##### Sample thermodynamic info  (temperature, energy, pressure, etc.) #####
#thermo 10000
#thermo_style   custom   step  temp  epair  emol  press pxx pyy pzz  vol
############################################################################

###
# set timestep of integrator
###
timestep 0.0001 #0.012

###
# run integration for a number of steps
###
run 10
Generated 0 of 0 mixed pair_coeff terms from geometric mixing rule
Neighbor list info ...
  update: every = 1 steps, delay = 0 steps, check = yes
  max neighbors/atom: 2000, page size: 100000
  master list distance cutoff = 4.1224615
  ghost atom cutoff = 4.1224615
  binsize = 2.0612308, bins = 3 2 5
  1 neighbor lists, perpetual/occasional/extra = 1 0 0
  (1) pair lj/cut/kk, perpetual
      attributes: half, newton on, kokkos_device
      pair build: half/bin/newton/kk/device
      stencil: half/bin/3d
      bin: kk/device
0  ekin = 0 | epot = 24.5770897640616 | etot = 24.5770897640616
Per MPI rank memory allocation (min/avg/max) = 4.75 | 4.75 | 4.75 Mbytes
   Step          Temp          E_pair         E_mol          TotEng         Press     
         0   0              2.457709       0              2.457709       0.8048628    
1  ekin = 1.86977377482527e-06 | epot = 24.5770878942877 | etot = 24.5770897640614
2  ekin = 7.47909357152682e-06 | epot = 24.5770822849676 | etot = 24.5770897640611
3  ekin = 1.68279548067847e-05 | epot = 24.5770729361058 | etot = 24.5770897640606
4  ekin = 2.99163498417417e-05 | epot = 24.5770598477101 | etot = 24.57708976406
5  ekin = 4.67442679820178e-05 | epot = 24.5770430197911 | etot = 24.5770897640591
6  ekin = 6.73116954777299e-05 | epot = 24.5770224523625 | etot = 24.577089764058
7  ekin = 9.16186155235172e-05 | epot = 24.5769981454413 | etot = 24.5770897640569
8  ekin = 0.000119665008258573 | epot = 24.5769700990472 | etot = 24.5770897640554
9  ekin = 0.000151450850766681 | epot = 24.576938313203 | etot = 24.5770897640538
10  ekin = 0.000186976117076257 | epot = 24.5769027879349 | etot = 24.5770897640519
        10   1.3850083e-05  2.4576903      0              2.457709       0.8048591    
Loop time of 0.000583954 on 2 procs for 10 steps with 10 atoms

Performance: 147956.733 tau/day, 17124.622 timesteps/s, 171.246 katom-step/s
10.0% CPU use with 2 MPI tasks x 1 OpenMP threads

MPI task timing breakdown:
Section |  min time  |  avg time  |  max time  |%varavg| %total
---------------------------------------------------------------
Pair    | 3.4213e-05 | 3.7661e-05 | 4.1109e-05 |   0.0 |  6.45
Neigh   | 0          | 0          | 0          |   0.0 |  0.00
Comm    | 0.00019506 | 0.00019881 | 0.00020256 |   0.0 | 34.05
Output  | 7.193e-06  | 7.3035e-06 | 7.414e-06  |   0.0 |  1.25
Modify  | 9.9768e-05 | 0.00011978 | 0.0001398  |   0.0 | 20.51
Other   |            | 0.0002204  |            |       | 37.74

Nlocal:              5 ave           5 max           5 min
Histogram: 2 0 0 0 0 0 0 0 0 0
Nghost:          104.5 ave         106 max         103 min
Histogram: 1 0 0 0 0 0 0 0 0 1
Neighs:           29.5 ave          31 max          28 min
Histogram: 1 0 0 0 0 0 0 0 0 1

Total # of neighbors = 59
Ave neighs/atom = 5.9
Neighbor list builds = 0
Dangerous builds = 0

write_data data_out.* nocoeff
System init for write_data ...
Generated 0 of 0 mixed pair_coeff terms from geometric mixing rule

Total wall time: 0:00:00
