LAMMPS (7 Feb 2024 - Development - patch_21Nov2023-1038-g7ee11f4804-modified)
KOKKOS mode with Kokkos version 4.2.0 is enabled (../kokkos.cpp:72)
package kokkos
package kokkos comm device
###
# Reference paper:
# K. Kremer and G. S. Grest
# Dynamics of entangled linear polymer melts: A molecular-dynamics simulation
# J Chem Phys 92, 5057 (1990)
###

###
# Box and units  (use LJ units and periodic boundaries)
###

units lj

atom_style ellipsoid

boundary        p p p

###
# Pair interactions require lists of neighbours to be calculated
###
neighbor 3.0 bin
neigh_modify every 1 delay 0 check yes

### Generate RESTART file, SPECIAL format, not a .txt file ###
### Useful if simulation crashes ###
#restart 10000 polymer.restart
#############################

#processors 2 1 1

### READ "REstart" data file ###
#read_restart polymer.restart.10000
######################

read_data lmp_data
Reading data file ...
  orthogonal box = (3 -4 -7) to (8 0 3)
  1 by 1 by 2 MPI processor grid
  reading atoms ...
  10 atoms
  reading velocities ...
  10 velocities
  read_data CPU = 0.005 seconds

### reset timestep ###
reset_timestep 0
######################

###
# Define groups (atom type 1 is group 'all')
###
group all type 1
10 atoms in group all
group polymer type 1
10 atoms in group polymer

###
# Dump configs - "simple dumpings"
###

###
# Dump configs + box coords
###
#dump   1   all   custom   100000   polymer.dump.*  id  x y z  ix iy iz
#dump_modify   1   format line "%d %.5f %.5f %.5f %d %d %d"
dump   id all atom 1000 dump.polymer

###################################################################
# Stiffness term
#
# E = K * (theta-thera0)**2, K>0
#
#angle_style   harmonic
#angle_coeff   1 2.0 120.0
###################################################################

###################################################################
# Pair interaction between non-bonded atoms
#
#  Lennard-Jones 12-6 potential with cutoff:
#  potential E=4epsilon[ (sigma/r)^12 - (sigma/r)^6]  for r<r_cut
#
#  1.12246152962189 = 2^(1/6) is the minimum of the potential

pair_style      lj/cut 1.12246152962189

#
#  pair_coeff for lj/cut, specify 4:
#    * atom type interacting with
#    * atom type
#    * epsilon (energy units)
#    * sigma (distance units)
#

pair_coeff      1 1 1.0 1.1

#
#  pair_modify shift yes adds a constant to the potential such
#  that E(r_cut)=0. Forces remains unchanged.
#

pair_modify     shift yes

###################################################

#comm_modify cutoff 6
#comm_style tiled
#balance 1.2 rcb

###
# Set up fixes
###

fix 1 all   nve   ###NVE ensemble
#fix 2 all   langevin   1.0 1.0   2.0   424242   ###Langevin integrator Tstart Tstop 1/friction rndseed

compute ekin all ke
compute epot all pe
variable ekin equal c_ekin
variable epot equal c_epot
variable etot equal c_ekin+c_epot

fix 5 all print 1000 "$(step)  ekin = ${ekin} | epot = ${epot} | etot = ${etot}" screen yes

##### Sample thermodynamic info  (temperature, energy, pressure, etc.) #####
#thermo 10000
#thermo_style   custom   step  temp  epair  emol  press pxx pyy pzz  vol
############################################################################

###
# set timestep of integrator
###
timestep 0.0001 #0.012

###
# run integration for a number of steps
###
run 250000
Generated 0 of 0 mixed pair_coeff terms from geometric mixing rule
Neighbor list info ...
  update: every = 1 steps, delay = 0 steps, check = yes
  max neighbors/atom: 2000, page size: 100000
  master list distance cutoff = 4.1224615
  ghost atom cutoff = 4.1224615
  binsize = 2.0612308, bins = 3 2 5
  1 neighbor lists, perpetual/occasional/extra = 1 0 0
  (1) pair lj/cut/kk, perpetual
      attributes: half, newton on, kokkos_device
      pair build: half/bin/newton/kk/device
      stencil: half/bin/3d
      bin: kk/device
0  ekin = 0 | epot = 24.5770897640616 | etot = 24.5770897640616
Per MPI rank memory allocation (min/avg/max) = 4.75 | 4.75 | 4.75 Mbytes
   Step          Temp          E_pair         E_mol          TotEng         Press     
         0   0              2.457709       0              2.457709       0.8048628    
1000  ekin = 1.74990247443957 | epot = 22.8271872081573 | etot = 24.5770896825969
2000  ekin = 5.84889961853607 | epot = 18.7281899317961 | etot = 24.5770895503322
3000  ekin = 10.2382440121982 | epot = 14.3388454778024 | etot = 24.5770894900006
4000  ekin = 13.7051201516319 | epot = 10.8719693416476 | etot = 24.5770894932795
5000  ekin = 15.9986224696611 | epot = 8.578467049193 | etot = 24.5770895188541
6000  ekin = 17.0375873485435 | epot = 7.53923348702108 | etot = 24.5768208355646
7000  ekin = 17.3865131888201 | epot = 7.19030450701372 | etot = 24.5768176958339
8000  ekin = 17.4282669642757 | epot = 7.14855074234134 | etot = 24.576817706617
9000  ekin = 17.6853010691868 | epot = 6.89151664491654 | etot = 24.5768177141033
10000  ekin = 18.2682016639392 | epot = 6.30861604953881 | etot = 24.576817713478
11000  ekin = 18.9933764157723 | epot = 5.58338374042773 | etot = 24.5767601562
12000  ekin = 19.6767845393715 | epot = 4.89997560694932 | etot = 24.5767601463208
13000  ekin = 20.2380206390503 | epot = 4.33870962607748 | etot = 24.5767302651278
14000  ekin = 20.688070740308 | epot = 3.88865952604993 | etot = 24.5767302663579
15000  ekin = 20.9291991121604 | epot = 3.64755991104152 | etot = 24.5767590232019
16000  ekin = 21.1657012847772 | epot = 3.41105774573086 | etot = 24.576759030508
17000  ekin = 21.4472090351424 | epot = 3.12949696832653 | etot = 24.5767060034689
18000  ekin = 21.7833732260355 | epot = 2.79333277339287 | etot = 24.5767059994284
19000  ekin = 22.3523718936062 | epot = 2.22433409879131 | etot = 24.5767059923975
20000  ekin = 23.0408014803912 | epot = 1.53592929995359 | etot = 24.5767307803448
21000  ekin = 23.5718742011476 | epot = 1.00485657490162 | etot = 24.5767307760492
22000  ekin = 24.0544148305128 | epot = 0.52231594378375 | etot = 24.5767307742965
23000  ekin = 24.3699751680509 | epot = 0.206857554714681 | etot = 24.5768327227656
24000  ekin = 24.2696499440375 | epot = 0.307289728254872 | etot = 24.5769396722924
25000  ekin = 24.0261014843479 | epot = 0.550838189329451 | etot = 24.5769396736774
26000  ekin = 23.677461712621 | epot = 0.899479882706703 | etot = 24.5769415953277
27000  ekin = 23.0645736569782 | epot = 1.51236793722913 | etot = 24.5769415942074
28000  ekin = 22.3502983971598 | epot = 2.22664319660821 | etot = 24.576941593768
29000  ekin = 21.5447773332009 | epot = 3.03216426211863 | etot = 24.5769415953196
30000  ekin = 20.6905274074208 | epot = 3.88641419297759 | etot = 24.5769416003983
31000  ekin = 19.8821489003934 | epot = 4.69479270881735 | etot = 24.5769416092107
32000  ekin = 19.2644744518908 | epot = 5.31246716693514 | etot = 24.576941618826
33000  ekin = 18.9864589022216 | epot = 5.59048272166448 | etot = 24.5769416238861
34000  ekin = 19.1244459099386 | epot = 5.45249571107118 | etot = 24.5769416210098
35000  ekin = 19.6352972372414 | epot = 4.94164437503642 | etot = 24.5769416122778
36000  ekin = 20.3851055953401 | epot = 4.19183600767504 | etot = 24.5769416030152
37000  ekin = 21.2245049684852 | epot = 3.3524366284878 | etot = 24.576941596973
38000  ekin = 22.0456462502583 | epot = 2.5312953443323 | etot = 24.5769415945906
39000  ekin = 22.7935536570362 | epot = 1.78338793744818 | etot = 24.5769415944844
40000  ekin = 23.4493387513229 | epot = 1.12760284392942 | etot = 24.5769415952523
41000  ekin = 23.9258504136793 | epot = 0.651015786472597 | etot = 24.5768662001519
42000  ekin = 24.1872567106151 | epot = 0.38960948778957 | etot = 24.5768661984047
43000  ekin = 24.4376286769259 | epot = 0.139237520423353 | etot = 24.5768661973492
44000  ekin = 24.5767933478146 | epot = 0 | etot = 24.5767933478146
45000  ekin = 24.5767933478146 | epot = 0 | etot = 24.5767933478146
46000  ekin = 24.5767933478146 | epot = 0 | etot = 24.5767933478146
47000  ekin = 24.5767933478146 | epot = 0 | etot = 24.5767933478146
48000  ekin = 24.5767933478146 | epot = 0 | etot = 24.5767933478146
49000  ekin = 24.5767933478146 | epot = 0 | etot = 24.5767933478146
50000  ekin = 24.5767933478146 | epot = 0 | etot = 24.5767933478146
51000  ekin = 24.5767933478146 | epot = 0 | etot = 24.5767933478146
52000  ekin = 24.5767933478146 | epot = 0 | etot = 24.5767933478146
53000  ekin = 24.5767933478146 | epot = 0 | etot = 24.5767933478146
54000  ekin = 24.5767933478146 | epot = 0 | etot = 24.5767933478146
55000  ekin = 24.5767933478146 | epot = 0 | etot = 24.5767933478146
56000  ekin = 24.5767933478146 | epot = 0 | etot = 24.5767933478146
57000  ekin = 24.5767933478146 | epot = 0 | etot = 24.5767933478146
58000  ekin = 24.5767933478146 | epot = 0 | etot = 24.5767933478146
59000  ekin = 24.5767933478146 | epot = 0 | etot = 24.5767933478146
60000  ekin = 24.5767933478146 | epot = 0 | etot = 24.5767933478146
61000  ekin = 24.5767933478146 | epot = 0 | etot = 24.5767933478146
62000  ekin = 24.5767933478146 | epot = 0 | etot = 24.5767933478146
63000  ekin = 24.5767933478146 | epot = 0 | etot = 24.5767933478146
64000  ekin = 24.5767933478146 | epot = 0 | etot = 24.5767933478146
65000  ekin = 24.5767933478146 | epot = 0 | etot = 24.5767933478146
66000  ekin = 24.5767933478146 | epot = 0 | etot = 24.5767933478146
67000  ekin = 24.5767933478146 | epot = 0 | etot = 24.5767933478146
68000  ekin = 24.5767933478146 | epot = 0 | etot = 24.5767933478146
69000  ekin = 24.5767933478146 | epot = 0 | etot = 24.5767933478146
70000  ekin = 24.5767933478146 | epot = 0 | etot = 24.5767933478146
71000  ekin = 24.5767933478146 | epot = 0 | etot = 24.5767933478146
72000  ekin = 24.5767933478146 | epot = 0 | etot = 24.5767933478146
73000  ekin = 24.5767933478146 | epot = 0 | etot = 24.5767933478146
74000  ekin = 24.5767933478146 | epot = 0 | etot = 24.5767933478146
75000  ekin = 24.5767933478146 | epot = 0 | etot = 24.5767933478146
76000  ekin = 24.5767933478146 | epot = 0 | etot = 24.5767933478146
77000  ekin = 24.5767933478146 | epot = 0 | etot = 24.5767933478146
78000  ekin = 24.5767933478146 | epot = 0 | etot = 24.5767933478146
79000  ekin = 24.5767933478146 | epot = 0 | etot = 24.5767933478146
80000  ekin = 24.5767933478146 | epot = 0 | etot = 24.5767933478146
81000  ekin = 24.5767933478146 | epot = 0 | etot = 24.5767933478146
82000  ekin = 24.5767933478146 | epot = 0 | etot = 24.5767933478146
83000  ekin = 24.5767933478146 | epot = 0 | etot = 24.5767933478146
84000  ekin = 24.5767933478146 | epot = 0 | etot = 24.5767933478146
85000  ekin = 24.5767933478146 | epot = 0 | etot = 24.5767933478146
86000  ekin = 24.5767933478146 | epot = 0 | etot = 24.5767933478146
87000  ekin = 24.5767933478146 | epot = 0 | etot = 24.5767933478146
88000  ekin = 24.5767933478146 | epot = 0 | etot = 24.5767933478146
89000  ekin = 24.5767933478146 | epot = 0 | etot = 24.5767933478146
90000  ekin = 24.5767933478146 | epot = 0 | etot = 24.5767933478146
91000  ekin = 24.5767933478146 | epot = 0 | etot = 24.5767933478146
92000  ekin = 24.5767933478146 | epot = 0 | etot = 24.5767933478146
93000  ekin = 24.5767933478146 | epot = 0 | etot = 24.5767933478146
94000  ekin = 24.5767933478146 | epot = 0 | etot = 24.5767933478146
95000  ekin = 24.5767933478146 | epot = 0 | etot = 24.5767933478146
96000  ekin = 24.5767933478146 | epot = 0 | etot = 24.5767933478146
97000  ekin = 24.5767933478146 | epot = 0 | etot = 24.5767933478146
98000  ekin = 24.5767933478146 | epot = 0 | etot = 24.5767933478146
99000  ekin = 24.5767933478146 | epot = 0 | etot = 24.5767933478146
100000  ekin = 24.5767933478146 | epot = 0 | etot = 24.5767933478146
101000  ekin = 24.5767933478146 | epot = 0 | etot = 24.5767933478146
102000  ekin = 24.5767933478146 | epot = 0 | etot = 24.5767933478146
103000  ekin = 24.5767933478146 | epot = 0 | etot = 24.5767933478146
104000  ekin = 24.5767933478146 | epot = 0 | etot = 24.5767933478146
105000  ekin = 24.5767933478146 | epot = 0 | etot = 24.5767933478146
106000  ekin = 24.5767933478146 | epot = 0 | etot = 24.5767933478146
107000  ekin = 24.5767933478146 | epot = 0 | etot = 24.5767933478146
108000  ekin = 24.5767933478146 | epot = 0 | etot = 24.5767933478146
109000  ekin = 24.5767933478146 | epot = 0 | etot = 24.5767933478146
110000  ekin = 24.5767933478146 | epot = 0 | etot = 24.5767933478146
111000  ekin = 24.5767933478146 | epot = 0 | etot = 24.5767933478146
112000  ekin = 24.5767933478146 | epot = 0 | etot = 24.5767933478146
113000  ekin = 24.5767933478146 | epot = 0 | etot = 24.5767933478146
114000  ekin = 24.5767933478146 | epot = 0 | etot = 24.5767933478146
115000  ekin = 24.5767933478146 | epot = 0 | etot = 24.5767933478146
116000  ekin = 24.5767933478146 | epot = 0 | etot = 24.5767933478146
117000  ekin = 24.5767933478146 | epot = 0 | etot = 24.5767933478146
118000  ekin = 24.5767933478146 | epot = 0 | etot = 24.5767933478146
119000  ekin = 24.5767933478146 | epot = 0 | etot = 24.5767933478146
120000  ekin = 24.5767933478146 | epot = 0 | etot = 24.5767933478146
121000  ekin = 24.5767933478146 | epot = 0 | etot = 24.5767933478146
122000  ekin = 24.5767933478146 | epot = 0 | etot = 24.5767933478146
123000  ekin = 24.5767933478146 | epot = 0 | etot = 24.5767933478146
124000  ekin = 24.5767933478146 | epot = 0 | etot = 24.5767933478146
125000  ekin = 24.5767933478146 | epot = 0 | etot = 24.5767933478146
126000  ekin = 24.5767933478146 | epot = 0 | etot = 24.5767933478146
127000  ekin = 24.5767933478146 | epot = 0 | etot = 24.5767933478146
128000  ekin = 24.5767933478146 | epot = 0 | etot = 24.5767933478146
129000  ekin = 24.5767933478146 | epot = 0 | etot = 24.5767933478146
130000  ekin = 24.5767933478146 | epot = 0 | etot = 24.5767933478146
131000  ekin = 24.5767933478146 | epot = 0 | etot = 24.5767933478146
132000  ekin = 24.5767933478146 | epot = 0 | etot = 24.5767933478146
133000  ekin = 24.5767933478146 | epot = 0 | etot = 24.5767933478146
134000  ekin = 24.5767933478146 | epot = 0 | etot = 24.5767933478146
135000  ekin = 24.5767933478146 | epot = 0 | etot = 24.5767933478146
136000  ekin = 24.5767933478146 | epot = 0 | etot = 24.5767933478146
137000  ekin = 24.5767933478146 | epot = 0 | etot = 24.5767933478146
138000  ekin = 24.5767933478146 | epot = 0 | etot = 24.5767933478146
139000  ekin = 24.5767933478146 | epot = 0 | etot = 24.5767933478146
140000  ekin = 24.5767933478146 | epot = 0 | etot = 24.5767933478146
141000  ekin = 24.5767933478146 | epot = 0 | etot = 24.5767933478146
142000  ekin = 24.5767933478146 | epot = 0 | etot = 24.5767933478146
143000  ekin = 24.5767933478146 | epot = 0 | etot = 24.5767933478146
144000  ekin = 24.5767933478146 | epot = 0 | etot = 24.5767933478146
145000  ekin = 24.5767933478146 | epot = 0 | etot = 24.5767933478146
146000  ekin = 24.5767933478146 | epot = 0 | etot = 24.5767933478146
147000  ekin = 24.5767933478146 | epot = 0 | etot = 24.5767933478146
148000  ekin = 24.5767933478146 | epot = 0 | etot = 24.5767933478146
149000  ekin = 24.5767933478146 | epot = 0 | etot = 24.5767933478146
150000  ekin = 24.5767933478146 | epot = 0 | etot = 24.5767933478146
151000  ekin = 24.5767933478146 | epot = 0 | etot = 24.5767933478146
152000  ekin = 24.5767933478146 | epot = 0 | etot = 24.5767933478146
153000  ekin = 24.5767933478146 | epot = 0 | etot = 24.5767933478146
154000  ekin = 24.5767933478146 | epot = 0 | etot = 24.5767933478146
155000  ekin = 24.5767933478146 | epot = 0 | etot = 24.5767933478146
156000  ekin = 24.5767933478146 | epot = 0 | etot = 24.5767933478146
157000  ekin = 24.5767933478146 | epot = 0 | etot = 24.5767933478146
158000  ekin = 24.5767933478146 | epot = 0 | etot = 24.5767933478146
159000  ekin = 24.5767933478146 | epot = 0 | etot = 24.5767933478146
160000  ekin = 24.5767933478146 | epot = 0 | etot = 24.5767933478146
161000  ekin = 24.5767933478146 | epot = 0 | etot = 24.5767933478146
162000  ekin = 24.5767933478146 | epot = 0 | etot = 24.5767933478146
163000  ekin = 24.5767933478146 | epot = 0 | etot = 24.5767933478146
164000  ekin = 24.5767933478146 | epot = 0 | etot = 24.5767933478146
165000  ekin = 24.5767933478146 | epot = 0 | etot = 24.5767933478146
166000  ekin = 24.5767933478146 | epot = 0 | etot = 24.5767933478146
167000  ekin = 24.5767933478146 | epot = 0 | etot = 24.5767933478146
168000  ekin = 24.5767933478146 | epot = 0 | etot = 24.5767933478146
169000  ekin = 24.5767933478146 | epot = 0 | etot = 24.5767933478146
170000  ekin = 24.5767933478146 | epot = 0 | etot = 24.5767933478146
171000  ekin = 24.5767933478146 | epot = 0 | etot = 24.5767933478146
172000  ekin = 24.5767933478146 | epot = 0 | etot = 24.5767933478146
173000  ekin = 24.5767933478146 | epot = 0 | etot = 24.5767933478146
174000  ekin = 24.5767933478146 | epot = 0 | etot = 24.5767933478146
175000  ekin = 24.5767933478146 | epot = 0 | etot = 24.5767933478146
176000  ekin = 24.5767933478146 | epot = 0 | etot = 24.5767933478146
177000  ekin = 24.5767933478146 | epot = 0 | etot = 24.5767933478146
178000  ekin = 24.5767933478146 | epot = 0 | etot = 24.5767933478146
179000  ekin = 24.5767933478146 | epot = 0 | etot = 24.5767933478146
180000  ekin = 24.5767933478146 | epot = 0 | etot = 24.5767933478146
181000  ekin = 24.5767933478146 | epot = 0 | etot = 24.5767933478146
182000  ekin = 24.5767933478146 | epot = 0 | etot = 24.5767933478146
183000  ekin = 24.5767933478146 | epot = 0 | etot = 24.5767933478146
184000  ekin = 24.5767933478146 | epot = 0 | etot = 24.5767933478146
185000  ekin = 24.5767933478146 | epot = 0 | etot = 24.5767933478146
186000  ekin = 24.5767933478146 | epot = 0 | etot = 24.5767933478146
187000  ekin = 24.5767933478146 | epot = 0 | etot = 24.5767933478146
188000  ekin = 24.5767933478146 | epot = 0 | etot = 24.5767933478146
189000  ekin = 24.5767933478146 | epot = 0 | etot = 24.5767933478146
190000  ekin = 24.5767933478146 | epot = 0 | etot = 24.5767933478146
191000  ekin = 24.5767933478146 | epot = 0 | etot = 24.5767933478146
192000  ekin = 24.5767933478146 | epot = 0 | etot = 24.5767933478146
193000  ekin = 24.5767933478146 | epot = 0 | etot = 24.5767933478146
194000  ekin = 24.5767933478146 | epot = 0 | etot = 24.5767933478146
195000  ekin = 24.5767933478146 | epot = 0 | etot = 24.5767933478146
196000  ekin = 24.5767933478146 | epot = 0 | etot = 24.5767933478146
197000  ekin = 24.5767933478146 | epot = 0 | etot = 24.5767933478146
198000  ekin = 24.5767933478146 | epot = 0 | etot = 24.5767933478146
199000  ekin = 24.5767933478146 | epot = 0 | etot = 24.5767933478146
200000  ekin = 24.5767933478146 | epot = 0 | etot = 24.5767933478146
201000  ekin = 24.5767933478146 | epot = 0 | etot = 24.5767933478146
202000  ekin = 24.3349315674489 | epot = 0.241769030799462 | etot = 24.5767005982483
203000  ekin = 24.0658183763583 | epot = 0.510882224103152 | etot = 24.5767006004614
204000  ekin = 23.8131751039219 | epot = 0.763525499325318 | etot = 24.5767006032472
205000  ekin = 23.6186829622553 | epot = 0.958017643579734 | etot = 24.576700605835
206000  ekin = 23.5202138374772 | epot = 1.05648676981074 | etot = 24.576700607288
207000  ekin = 23.5387907689613 | epot = 1.03790983804524 | etot = 24.5767006070065
208000  ekin = 23.6703540165379 | epot = 0.906346588572699 | etot = 24.5767006051106
209000  ekin = 23.8874014685258 | epot = 0.689299133834246 | etot = 24.57670060236
210000  ekin = 24.1494555485492 | epot = 0.427245051138368 | etot = 24.5767005996876
211000  ekin = 24.4161339145525 | epot = 0.160566683190557 | etot = 24.5767005977431
212000  ekin = 24.5766865242154 | epot = 0 | etot = 24.5766865242154
213000  ekin = 24.5766865242154 | epot = 0 | etot = 24.5766865242154
214000  ekin = 24.5766865242154 | epot = 0 | etot = 24.5766865242154
215000  ekin = 24.5766865242154 | epot = 0 | etot = 24.5766865242154
216000  ekin = 24.5766865242154 | epot = 0 | etot = 24.5766865242154
217000  ekin = 24.5766865242154 | epot = 0 | etot = 24.5766865242154
218000  ekin = 24.5766865242154 | epot = 0 | etot = 24.5766865242154
219000  ekin = 24.5766865242154 | epot = 0 | etot = 24.5766865242154
220000  ekin = 24.5766865242154 | epot = 0 | etot = 24.5766865242154
221000  ekin = 24.5766865242154 | epot = 0 | etot = 24.5766865242154
222000  ekin = 24.5766865242154 | epot = 0 | etot = 24.5766865242154
223000  ekin = 24.5766865242154 | epot = 0 | etot = 24.5766865242154
224000  ekin = 24.5766865242154 | epot = 0 | etot = 24.5766865242154
225000  ekin = 24.5766865242154 | epot = 0 | etot = 24.5766865242154
226000  ekin = 24.5766865242154 | epot = 0 | etot = 24.5766865242154
227000  ekin = 24.5766865242154 | epot = 0 | etot = 24.5766865242154
228000  ekin = 24.5766865242154 | epot = 0 | etot = 24.5766865242154
229000  ekin = 24.5766865242154 | epot = 0 | etot = 24.5766865242154
230000  ekin = 24.5766865242154 | epot = 0 | etot = 24.5766865242154
231000  ekin = 24.5766865242154 | epot = 0 | etot = 24.5766865242154
232000  ekin = 24.5766865242154 | epot = 0 | etot = 24.5766865242154
233000  ekin = 24.5766865242154 | epot = 0 | etot = 24.5766865242154
234000  ekin = 24.5766865242154 | epot = 0 | etot = 24.5766865242154
235000  ekin = 24.5766865242154 | epot = 0 | etot = 24.5766865242154
236000  ekin = 24.5766865242154 | epot = 0 | etot = 24.5766865242154
237000  ekin = 24.5766865242154 | epot = 0 | etot = 24.5766865242154
238000  ekin = 24.4260350101683 | epot = 0.150626855485986 | etot = 24.5766618656543
239000  ekin = 24.1034323647591 | epot = 0.473229502379729 | etot = 24.5766618671388
240000  ekin = 23.7534845934209 | epot = 0.823177276568264 | etot = 24.5766618699891
241000  ekin = 23.4226857687287 | epot = 1.15397610505685 | etot = 24.5766618737856
242000  ekin = 23.1695830318263 | epot = 1.40707884555739 | etot = 24.5766618773837
243000  ekin = 23.0480370818895 | epot = 1.52862479743114 | etot = 24.5766618793207
244000  ekin = 23.0866158663466 | epot = 1.49004601234462 | etot = 24.5766618786912
245000  ekin = 23.2760645263099 | epot = 1.30059734948778 | etot = 24.5766618757977
246000  ekin = 23.5734749244846 | epot = 1.00318694744105 | etot = 24.5766618719257
247000  ekin = 23.9201939767467 | epot = 0.656467891730627 | etot = 24.5766618684773
248000  ekin = 24.2618621166827 | epot = 0.314799749582458 | etot = 24.5766618662652
249000  ekin = 24.5607182904404 | epot = 0.0159435749525688 | etot = 24.576661865393
250000  ekin = 24.5766574051738 | epot = 0 | etot = 24.5766574051738
    250000   1.8204931      0              0              2.4576657      0.081922191  
Loop time of 10.0496 on 2 procs for 250000 steps with 10 atoms

Performance: 214933.105 tau/day, 24876.517 timesteps/s, 248.765 katom-step/s
99.7% CPU use with 2 MPI tasks x 1 OpenMP threads

MPI task timing breakdown:
Section |  min time  |  avg time  |  max time  |%varavg| %total
---------------------------------------------------------------
Pair    | 1.2819     | 1.2886     | 1.2954     |   0.6 | 12.82
Neigh   | 0.00010195 | 0.00010384 | 0.00010572 |   0.0 |  0.00
Comm    | 5.5485     | 5.5497     | 5.5509     |   0.1 | 55.22
Output  | 0.008795   | 0.035177   | 0.061559   |  14.1 |  0.35
Modify  | 1.4409     | 1.4717     | 1.5025     |   2.5 | 14.64
Other   |            | 1.704      |            |       | 16.96

Nlocal:              5 ave           6 max           4 min
Histogram: 1 0 0 0 0 0 0 0 0 1
Nghost:             99 ave         103 max          95 min
Histogram: 1 0 0 0 0 0 0 0 0 1
Neighs:           39.5 ave          45 max          34 min
Histogram: 1 0 0 0 0 0 0 0 0 1

Total # of neighbors = 79
Ave neighs/atom = 7.9
Neighbor list builds = 3
Dangerous builds = 0

write_data data_out.* nocoeff
System init for write_data ...
Generated 0 of 0 mixed pair_coeff terms from geometric mixing rule

Total wall time: 0:00:10
