LAMMPS (29 Aug 2024 - Development - patch_29Aug2024-424-g5c9faab8fc-modified)
KOKKOS mode with Kokkos version 4.3.1 is enabled (../kokkos.cpp:72)
  will use up to 1 GPU(s) per node
  using 2 OpenMP thread(s) per MPI task
package kokkos
variable number	equal 1
variable ofreq	equal 1000
variable efreq	equal 1000
variable T      equal 0.1

units lj

dimension 3

newton on

boundary  p p p

atom_style ellipsoid/kk
#atom_modify sort 0 1.0

# Pair interactions require lists of neighbours to be calculated
neighbor 2.0 bin
neigh_modify every 1 delay 0 check yes

read_data data.duplex1
Reading data file ...
  orthogonal box = (-20 -20 -20) to (20 20 20)
  1 by 1 by 1 MPI processor grid
  reading atoms ...
  10 atoms
  reading velocities ...
  10 velocities
  10 ellipsoids
  read_data CPU = 0.013 seconds

group all type 1 4
10 atoms in group all

# oxDNA bond interactions - FENE backbone
#bond_style oxdna/fene
#bond_coeff * 2.0 0.25 0.7525
#special_bonds lj 0 1 1

# oxDNA pair interactions
pair_style oxdna/excv/kk
pair_coeff * * 2.0 0.7 0.675 2.0 0.515 0.5 2.0 0.33 0.32
#pair_style hybrid/overlay oxdna/excv oxdna/stk oxdna/hbond oxdna/xstk oxdna/coaxstk
#pair_coeff * * oxdna/excv    2.0 0.7 0.675 2.0 0.515 0.5 2.0 0.33 0.32
#pair_coeff * * oxdna/stk     seqav ${T} 1.3448 2.6568 6.0 0.4 0.9 0.32 0.75 1.3 0 0.8 0.9 0 0.95 0.9 0 0.95 2.0 0.65 2.0 0.65
#pair_coeff * * oxdna/hbond   seqav 0.0   8.0 0.4 0.75 0.34 0.7 1.5 0 0.7 1.5 0 0.7 1.5 0 0.7 0.46 3.141592653589793 0.7 4.0 1.5707963267948966 0.45 4.0 1.5707963267948966 0.45
#pair_coeff 1 4 oxdna/hbond   seqav 1.077 8.0 0.4 0.75 0.34 0.7 1.5 0 0.7 1.5 0 0.7 1.5 0 0.7 0.46 3.141592653589793 0.7 4.0 1.5707963267948966 0.45 4.0 1.5707963267948966 0.45
#pair_coeff 2 3 oxdna/hbond   seqav 1.077 8.0 0.4 0.75 0.34 0.7 1.5 0 0.7 1.5 0 0.7 1.5 0 0.7 0.46 3.141592653589793 0.7 4.0 1.5707963267948966 0.45 4.0 1.5707963267948966 0.45
#pair_coeff * * oxdna/xstk    47.5 0.575 0.675 0.495 0.655 2.25 0.791592653589793 0.58 1.7 1.0 0.68 1.7 1.0 0.68 1.5 0 0.65 1.7 0.875 0.68 1.7 0.875 0.68
#pair_coeff * * oxdna/coaxstk 46.0 0.4 0.6 0.22 0.58 2.0 2.541592653589793 0.65 1.3 0 0.8 0.9 0 0.95 0.9 0 0.95 2.0 -0.65 2.0 -0.65

# NVE ensemble
fix 1 all nve/asphere
#fix 2 all langevin ${T} ${T} 2.5 457145 angmom 10

timestep 1e-6

#comm_style tiled
#fix 3 all balance 1000 1.03 shift xyz 10 1.03
#comm_modify cutoff 3.8

compute quat all property/atom quatw quati quatj quatk

compute erot all erotate/asphere
compute ekin all ke
compute epot all pe
variable erot equal c_erot
variable ekin equal c_ekin
variable epot equal c_epot
variable etot equal c_erot+c_ekin+c_epot
fix 5 all print ${efreq} "$(step)  ekin = ${ekin} |  erot = ${erot} | epot = ${epot} | etot = ${etot}" screen yes
fix 5 all print 1000 "$(step)  ekin = ${ekin} |  erot = ${erot} | epot = ${epot} | etot = ${etot}" screen yes

#dump out all custom ${ofreq} out.${number}.lammpstrj id mol type x y z ix iy iz vx vy vz c_quat[1] c_quat[2] c_quat[3] c_quat[4] angmomx angmomy angmomz
#dump_modify out sort id
#dump_modify out format line "%d %d %d  %22.15le %22.15le %22.15le  %d %d %d  %22.15le %22.15le %22.15le  %22.15le %22.15le %22.15le %22.15le  %22.15le %22.15le %22.15le"

compute q all property/atom quatw quati quatj quatk
compute diameter all property/atom shapex shapey shapez
dump 1 all custom 1000 dump.polymer id type x y z c_q[1] c_q[2] c_q[3] c_q[4] c_diameter[1] c_diameter[2] c_diameter[3]
dump_modify 1 colname c_q[1] quatw colname c_q[2] quati colname c_q[3] quatj colname c_q[4] quatk
dump_modify 1 colname c_diameter[1] shapex colname c_diameter[2] shapey colname c_diameter[3] shapez

run_style verlet/kk
run 100000

CITE-CITE-CITE-CITE-CITE-CITE-CITE-CITE-CITE-CITE-CITE-CITE-CITE

Your simulation uses code contributions which should be cited:

- Type Label Framework: https://doi.org/10.1021/acs.jpcb.3c08419

@Article{Gissinger24,
 author = {Jacob R. Gissinger, Ilia Nikiforov, Yaser Afshar, Brendon Waters, Moon-ki Choi, Daniel S. Karls, Alexander Stukowski, Wonpil Im, Hendrik Heinz, Axel Kohlmeyer, and Ellad B. Tadmor},
 title = {Type Label Framework for Bonded Force Fields in LAMMPS},
 journal = {J. Phys. Chem. B},
 year =    2024,
 volume =  128,
 number =  13,
 pages =   {3282–-3297}
}

CITE-CITE-CITE-CITE-CITE-CITE-CITE-CITE-CITE-CITE-CITE-CITE-CITE

Generated 0 of 6 mixed pair_coeff terms from geometric mixing rule
Neighbor list info ...
  update: every = 1 steps, delay = 0 steps, check = yes
  max neighbors/atom: 2000, page size: 100000
  master list distance cutoff = 2.7118792
  ghost atom cutoff = 2.7118792
  binsize = 2.7118792, bins = 15 15 15
  1 neighbor lists, perpetual/occasional/extra = 1 0 0
  (1) pair oxdna/excv/kk, perpetual
      attributes: full, newton on, kokkos_device
      pair build: full/bin/kk/device
      stencil: full/bin/3d
      bin: kk/device
0  ekin = 0.0408626847564314 |  erot = 923.232539575778 | epot = 10253.6666682448 | etot = 11176.9400705053
Per MPI rank memory allocation (min/avg/max) = 6.432 | 6.432 | 6.432 Mbytes
   Step          Temp          E_pair         E_mol          TotEng         Press     
         0   0.0030268655   1025.3667      0              1025.3708     -0.019817177  
1000  ekin = 2374.02411598224 |  erot = 8656.575442024 | epot = 145.431663118677 | etot = 11176.0312211249
2000  ekin = 3785.60212167187 |  erot = 7190.94035084366 | epot = 199.489137650484 | etot = 11176.031610166
3000  ekin = 3924.31631366499 |  erot = 7231.23851172222 | epot = 20.476340304676 | etot = 11176.0311656919
4000  ekin = 4020.33090314037 |  erot = 7048.22506581446 | epot = 107.475356526038 | etot = 11176.0313254809
5000  ekin = 4066.82141438935 |  erot = 6991.47563405301 | epot = 117.734270657604 | etot = 11176.0313191
6000  ekin = 4128.66174867394 |  erot = 6970.8567099215 | epot = 76.5131916944141 | etot = 11176.0316502899
7000  ekin = 4119.1089201984 |  erot = 6989.66907860074 | epot = 67.2535921290815 | etot = 11176.0315909282
8000  ekin = 4160.16423319911 |  erot = 6935.12647741964 | epot = 80.7407832344564 | etot = 11176.0314938532
9000  ekin = 4174.37520805656 |  erot = 6998.86927186638 | epot = 2.78718048611099 | etot = 11176.031660409
10000  ekin = 4175.05269771952 |  erot = 6994.91500374199 | epot = 6.06390399813197 | etot = 11176.0316054596
11000  ekin = 4246.0282469163 |  erot = 6928.07784398215 | epot = 1.92552674814584 | etot = 11176.0316176466
12000  ekin = 4243.02038437681 |  erot = 6920.51827078429 | epot = 12.493005110408 | etot = 11176.0316602715
13000  ekin = 4256.15237437143 |  erot = 6919.20951923352 | epot = 0.669743955155325 | etot = 11176.0316375601
14000  ekin = 4260.1255081207 |  erot = 6908.27161577311 | epot = 7.63451977026724 | etot = 11176.0316436641
15000  ekin = 4265.91693933257 |  erot = 6909.9788030701 | epot = 0.13589860273364 | etot = 11176.0316410054
16000  ekin = 4265.97539229452 |  erot = 6910.05625188307 | epot = 0 | etot = 11176.0316441776
17000  ekin = 4265.97539229452 |  erot = 6910.05625271315 | epot = 0 | etot = 11176.0316450077
18000  ekin = 4265.97539229452 |  erot = 6910.05625359036 | epot = 0 | etot = 11176.0316458849
19000  ekin = 4265.97539229452 |  erot = 6910.05625453918 | epot = 0 | etot = 11176.0316468337
20000  ekin = 4265.97539229452 |  erot = 6910.05625542157 | epot = 0 | etot = 11176.0316477161
21000  ekin = 4265.97539229452 |  erot = 6910.05625625072 | epot = 0 | etot = 11176.0316485452
22000  ekin = 4265.97539229452 |  erot = 6910.05625714463 | epot = 0 | etot = 11176.0316494391
23000  ekin = 4265.97539229452 |  erot = 6910.05625809143 | epot = 0 | etot = 11176.0316503859
24000  ekin = 4265.97539229452 |  erot = 6910.05625895762 | epot = 0 | etot = 11176.0316512521
25000  ekin = 4265.97539229452 |  erot = 6910.05625979015 | epot = 0 | etot = 11176.0316520847
26000  ekin = 4265.97539229452 |  erot = 6910.056260701 | epot = 0 | etot = 11176.0316529955
27000  ekin = 4265.97539229452 |  erot = 6910.05626164075 | epot = 0 | etot = 11176.0316539353
28000  ekin = 4265.97539229452 |  erot = 6910.05626249313 | epot = 0 | etot = 11176.0316547877
29000  ekin = 4265.97539229452 |  erot = 6910.05626333318 | epot = 0 | etot = 11176.0316556277
30000  ekin = 4265.97539229452 |  erot = 6910.05626425952 | epot = 0 | etot = 11176.031656554
31000  ekin = 4265.97539229452 |  erot = 6910.05626518767 | epot = 0 | etot = 11176.0316574822
32000  ekin = 4265.97539229452 |  erot = 6910.05626602886 | epot = 0 | etot = 11176.0316583234
33000  ekin = 4265.97539229452 |  erot = 6910.05626687948 | epot = 0 | etot = 11176.031659174
34000  ekin = 4265.97539229452 |  erot = 6910.0562678178 | epot = 0 | etot = 11176.0316601123
35000  ekin = 4265.97539229452 |  erot = 6910.0562687307 | epot = 0 | etot = 11176.0316610252
36000  ekin = 4265.97539229452 |  erot = 6910.05626956391 | epot = 0 | etot = 11176.0316618584
37000  ekin = 4266.08734738011 |  erot = 6895.03381209704 | epot = 14.9105041986393 | etot = 11176.0316636758
38000  ekin = 4268.96707818908 |  erot = 6882.79111091666 | epot = 24.2734791381571 | etot = 11176.0316682439
39000  ekin = 4272.29151833417 |  erot = 6902.16227312643 | epot = 1.57787354116895 | etot = 11176.0316650018
40000  ekin = 4272.46894738709 |  erot = 6903.53834766138 | epot = 0.024374577636838 | etot = 11176.0316696261
41000  ekin = 4272.99883107289 |  erot = 6902.42623825545 | epot = 0.606601469550913 | etot = 11176.0316707979
42000  ekin = 4273.68538221489 |  erot = 6902.24716276885 | epot = 0.0991265190947259 | etot = 11176.0316715028
43000  ekin = 4273.73772447121 |  erot = 6902.29394814894 | epot = 0 | etot = 11176.0316726201
44000  ekin = 4273.73772447121 |  erot = 6902.29394897877 | epot = 0 | etot = 11176.03167345
45000  ekin = 4273.73772447121 |  erot = 6902.29394987617 | epot = 0 | etot = 11176.0316743474
46000  ekin = 4273.73772447121 |  erot = 6902.29395082225 | epot = 0 | etot = 11176.0316752935
47000  ekin = 4273.73772447121 |  erot = 6902.29395168582 | epot = 0 | etot = 11176.031676157
48000  ekin = 4273.73772447121 |  erot = 6902.29395251942 | epot = 0 | etot = 11176.0316769906
49000  ekin = 4273.73772447121 |  erot = 6902.29395343315 | epot = 0 | etot = 11176.0316779044
50000  ekin = 4273.73772447121 |  erot = 6902.29395437085 | epot = 0 | etot = 11176.0316788421
51000  ekin = 4273.73772447121 |  erot = 6902.29395522064 | epot = 0 | etot = 11176.0316796918
52000  ekin = 4273.73772447121 |  erot = 6902.29395606209 | epot = 0 | etot = 11176.0316805333
53000  ekin = 4273.73772447121 |  erot = 6902.29395699068 | epot = 0 | etot = 11176.0316814619
54000  ekin = 4273.73772447121 |  erot = 6902.29395791604 | epot = 0 | etot = 11176.0316823873
55000  ekin = 4273.73772447121 |  erot = 6902.29395875543 | epot = 0 | etot = 11176.0316832266
56000  ekin = 4273.73772447121 |  erot = 6902.29395960844 | epot = 0 | etot = 11176.0316840797
57000  ekin = 4273.73772447121 |  erot = 6902.29396054882 | epot = 0 | etot = 11176.03168502
58000  ekin = 4273.73772447121 |  erot = 6902.29396145902 | epot = 0 | etot = 11176.0316859302
59000  ekin = 4273.73772447121 |  erot = 6902.29396229157 | epot = 0 | etot = 11176.0316867628
60000  ekin = 4273.73772447121 |  erot = 6902.29396315884 | epot = 0 | etot = 11176.03168763
61000  ekin = 4273.73772447121 |  erot = 6902.29396410607 | epot = 0 | etot = 11176.0316885773
62000  ekin = 4273.73772447121 |  erot = 6902.29396499919 | epot = 0 | etot = 11176.0316894704
63000  ekin = 4273.73772447121 |  erot = 6902.29396582833 | epot = 0 | etot = 11176.0316902995
64000  ekin = 4273.73772447121 |  erot = 6902.29396671153 | epot = 0 | etot = 11176.0316911827
65000  ekin = 4273.73772447121 |  erot = 6902.29396766012 | epot = 0 | etot = 11176.0316921313
66000  ekin = 4273.73772447121 |  erot = 6902.29396853624 | epot = 0 | etot = 11176.0316930074
67000  ekin = 4273.73772447121 |  erot = 6902.29396936615 | epot = 0 | etot = 11176.0316938374
68000  ekin = 4273.73772447121 |  erot = 6902.29397026642 | epot = 0 | etot = 11176.0316947376
69000  ekin = 4273.73772447121 |  erot = 6902.29397121126 | epot = 0 | etot = 11176.0316956825
70000  ekin = 4273.73772447121 |  erot = 6902.29397207215 | epot = 0 | etot = 11176.0316965434
71000  ekin = 4273.73772447121 |  erot = 6902.2939729072 | epot = 0 | etot = 11176.0316973784
72000  ekin = 4273.73772447121 |  erot = 6902.29397382423 | epot = 0 | etot = 11176.0316982954
73000  ekin = 4273.73772447121 |  erot = 6902.29397476031 | epot = 0 | etot = 11176.0316992315
74000  ekin = 4273.73772447121 |  erot = 6902.29397560819 | epot = 0 | etot = 11176.0317000794
75000  ekin = 4273.73772447121 |  erot = 6902.29397645172 | epot = 0 | etot = 11176.0317009229
76000  ekin = 4273.73772447121 |  erot = 6902.29397738286 | epot = 0 | etot = 11176.0317018541
77000  ekin = 4273.73772447121 |  erot = 6902.29397830549 | epot = 0 | etot = 11176.0317027767
78000  ekin = 4273.73772447121 |  erot = 6902.29397914313 | epot = 0 | etot = 11176.0317036143
79000  ekin = 4273.73772447121 |  erot = 6902.29397999835 | epot = 0 | etot = 11176.0317044696
80000  ekin = 4273.73772447121 |  erot = 6902.29398094009 | epot = 0 | etot = 11176.0317054113
81000  ekin = 4273.73772447121 |  erot = 6902.29398184688 | epot = 0 | etot = 11176.0317063181
82000  ekin = 4273.73772447121 |  erot = 6902.29398267827 | epot = 0 | etot = 11176.0317071495
83000  ekin = 4273.73772447121 |  erot = 6902.29398354831 | epot = 0 | etot = 11176.0317080195
84000  ekin = 4273.73772447121 |  erot = 6902.29398449623 | epot = 0 | etot = 11176.0317089674
85000  ekin = 4273.73772447121 |  erot = 6902.29398538633 | epot = 0 | etot = 11176.0317098575
86000  ekin = 4273.73772447121 |  erot = 6902.29398621559 | epot = 0 | etot = 11176.0317106868
87000  ekin = 4273.73772447121 |  erot = 6902.29398710227 | epot = 0 | etot = 11176.0317115735
88000  ekin = 4273.73772447121 |  erot = 6902.29398805089 | epot = 0 | etot = 11176.0317125221
89000  ekin = 4273.73772447121 |  erot = 6902.29398892431 | epot = 0 | etot = 11176.0317133955
90000  ekin = 4273.73772447121 |  erot = 6902.29398975501 | epot = 0 | etot = 11176.0317142262
91000  ekin = 4273.73772447121 |  erot = 6902.29399065849 | epot = 0 | etot = 11176.0317151297
92000  ekin = 4273.73772447121 |  erot = 6902.29399160197 | epot = 0 | etot = 11176.0317160732
93000  ekin = 4273.73772447121 |  erot = 6902.29399245999 | epot = 0 | etot = 11176.0317169312
94000  ekin = 4273.73772447121 |  erot = 6902.29399329605 | epot = 0 | etot = 11176.0317177673
95000  ekin = 4273.73772447121 |  erot = 6902.29399421553 | epot = 0 | etot = 11176.0317186867
96000  ekin = 4273.73772447121 |  erot = 6902.29399514903 | epot = 0 | etot = 11176.0317196202
97000  ekin = 4273.73772447121 |  erot = 6902.2939959946 | epot = 0 | etot = 11176.0317204658
98000  ekin = 4273.73772447121 |  erot = 6902.29399684005 | epot = 0 | etot = 11176.0317213113
99000  ekin = 4273.73772447121 |  erot = 6902.29399777359 | epot = 0 | etot = 11176.0317222448
100000  ekin = 4273.73772447121 |  erot = 6902.29399869372 | epot = 0 | etot = 11176.0317231649
    100000   316.57316      0              0              427.37377      0.044518101  
Loop time of 44.5565 on 2 procs for 100000 steps with 10 atoms

Performance: 193.911 tau/day, 2244.342 timesteps/s, 22.443 katom-step/s
100.0% CPU use with 1 MPI tasks x 2 OpenMP threads

MPI task timing breakdown:
Section |  min time  |  avg time  |  max time  |%varavg| %total
---------------------------------------------------------------
Pair    | 20.589     | 20.589     | 20.589     |   0.0 | 46.21
Neigh   | 0.0043527  | 0.0043527  | 0.0043527  |   0.0 |  0.01
Comm    | 13.876     | 13.876     | 13.876     |   0.0 | 31.14
Output  | 0.0039401  | 0.0039401  | 0.0039401  |   0.0 |  0.01
Modify  | 0.67493    | 0.67493    | 0.67493    |   0.0 |  1.51
Other   |            | 9.408      |            |       | 21.11

Nlocal:             10 ave          10 max          10 min
Histogram: 1 0 0 0 0 0 0 0 0 0
Nghost:              0 ave           0 max           0 min
Histogram: 1 0 0 0 0 0 0 0 0 0
Neighs:              0 ave           0 max           0 min
Histogram: 1 0 0 0 0 0 0 0 0 0
FullNghs:            4 ave           4 max           4 min
Histogram: 1 0 0 0 0 0 0 0 0 0

Total # of neighbors = 4
Ave neighs/atom = 0.4
Neighbor list builds = 28
Dangerous builds = 0
Total wall time: 0:00:45
