LAMMPS (29 Aug 2024 - Development - patch_27Jun2024-1407-g9b3a129b99-modified)
KOKKOS mode with Kokkos version 4.3.1 is enabled (../kokkos.cpp:72)
KokkosP: MemoryEvents loaded (sequence: 0, version: 20211015)
KokkosP: MemoryEvents loaded (sequence: 0, version: 20211015)
Reading data file ...
  orthogonal box = (-20 -20 -20) to (20 20 20)
  1 by 1 by 2 MPI processor grid
  reading atoms ...
  10 atoms
  reading velocities ...
  10 velocities
  10 ellipsoids
  read_data CPU = 0.002 seconds
10 atoms in group all

CITE-CITE-CITE-CITE-CITE-CITE-CITE-CITE-CITE-CITE-CITE-CITE-CITE

Your simulation uses code contributions which should be cited:
- Type Label Framework: https://doi.org/10.1021/acs.jpcb.3c08419
The log file lists these citations in BibTeX format.

CITE-CITE-CITE-CITE-CITE-CITE-CITE-CITE-CITE-CITE-CITE-CITE-CITE

Generated 0 of 6 mixed pair_coeff terms from geometric mixing rule
Neighbor list info ...
  update: every = 1 steps, delay = 0 steps, check = yes
  max neighbors/atom: 2000, page size: 100000
  master list distance cutoff = 2.7118792
  ghost atom cutoff = 2.7118792
  binsize = 1.3559396, bins = 30 30 30
  1 neighbor lists, perpetual/occasional/extra = 1 0 0
  (1) pair oxdna/excv/kk, perpetual
      attributes: half, newton on, kokkos_device
      pair build: half/bin/newton/kk/device
      stencil: half/bin/3d
      bin: kk/device
Setting up Verlet run ...
  Unit style    : lj
  Current step  : 0
  Time step     : 1e-06
0  ekin = 0.0408626847564313 |  erot = 923.232539575778 | epot = 10253.6666682448 | etot = 11176.9400705053
Per MPI rank memory allocation (min/avg/max) = 5.049 | 5.112 | 5.174 Mbytes
   Step          Temp          E_pair         E_mol          TotEng         Press     
         0   0.0030268655   1025.3667      0              1025.3708     -0.019817177  
1000  ekin = 2374.02411598224 |  erot = 8656.57544202409 | epot = 145.431663118678 | etot = 11176.031221125
2000  ekin = 3785.60212167189 |  erot = 7190.9403508437 | epot = 199.489137650481 | etot = 11176.0316101661
3000  ekin = 3924.31631366501 |  erot = 7231.23851172225 | epot = 20.4763403046759 | etot = 11176.0311656919
4000  ekin = 4020.33090314039 |  erot = 7048.22506581447 | epot = 107.475356526042 | etot = 11176.0313254809
5000  ekin = 4066.82141438937 |  erot = 6991.475634053 | epot = 117.734270657633 | etot = 11176.0313191
6000  ekin = 4128.66174867396 |  erot = 6970.85670992152 | epot = 76.5131916944307 | etot = 11176.0316502899
7000  ekin = 4119.10892019842 |  erot = 6989.66907860077 | epot = 67.253592129079 | etot = 11176.0315909283
8000  ekin = 4160.16423319913 |  erot = 6935.1264774197 | epot = 80.7407832344301 | etot = 11176.0314938533
9000  ekin = 4174.37520805658 |  erot = 6998.86927186641 | epot = 2.78718048611157 | etot = 11176.0316604091
10000  ekin = 4175.05269771954 |  erot = 6994.91500374207 | epot = 6.06390399811154 | etot = 11176.0316054597
11000  ekin = 4246.02824691632 |  erot = 6928.07784398216 | epot = 1.92552674815638 | etot = 11176.0316176466
12000  ekin = 4243.02038437683 |  erot = 6920.51827078433 | epot = 12.4930051104021 | etot = 11176.0316602716
13000  ekin = 4256.15237437138 |  erot = 6919.20951923362 | epot = 0.669743955155854 | etot = 11176.0316375602
14000  ekin = 4260.12550812065 |  erot = 6908.27161577324 | epot = 7.63451977024502 | etot = 11176.0316436641
15000  ekin = 4265.91693933248 |  erot = 6909.97880307026 | epot = 0.135898602728212 | etot = 11176.0316410055
16000  ekin = 4265.97539229443 |  erot = 6910.05625188322 | epot = 0 | etot = 11176.0316441777
17000  ekin = 4265.97539229443 |  erot = 6910.0562527133 | epot = 0 | etot = 11176.0316450077
18000  ekin = 4265.97539229443 |  erot = 6910.05625359054 | epot = 0 | etot = 11176.031645885
19000  ekin = 4265.97539229443 |  erot = 6910.05625453935 | epot = 0 | etot = 11176.0316468338
20000  ekin = 4265.97539229443 |  erot = 6910.05625542173 | epot = 0 | etot = 11176.0316477162
21000  ekin = 4265.97539229443 |  erot = 6910.05625625089 | epot = 0 | etot = 11176.0316485453
22000  ekin = 4265.97539229443 |  erot = 6910.0562571448 | epot = 0 | etot = 11176.0316494392
23000  ekin = 4265.97539229443 |  erot = 6910.05625809157 | epot = 0 | etot = 11176.031650386
24000  ekin = 4265.97539229443 |  erot = 6910.05625895777 | epot = 0 | etot = 11176.0316512522
25000  ekin = 4265.97539229443 |  erot = 6910.05625979029 | epot = 0 | etot = 11176.0316520847
26000  ekin = 4265.97539229443 |  erot = 6910.05626070114 | epot = 0 | etot = 11176.0316529956
27000  ekin = 4265.97539229443 |  erot = 6910.05626164091 | epot = 0 | etot = 11176.0316539353
28000  ekin = 4265.97539229443 |  erot = 6910.0562624933 | epot = 0 | etot = 11176.0316547877
29000  ekin = 4265.97539229443 |  erot = 6910.05626333333 | epot = 0 | etot = 11176.0316556278
30000  ekin = 4265.97539229443 |  erot = 6910.05626425964 | epot = 0 | etot = 11176.0316565541
31000  ekin = 4265.97539229443 |  erot = 6910.05626518781 | epot = 0 | etot = 11176.0316574822
32000  ekin = 4265.97539229443 |  erot = 6910.05626602898 | epot = 0 | etot = 11176.0316583234
33000  ekin = 4265.97539229443 |  erot = 6910.0562668796 | epot = 0 | etot = 11176.031659174
34000  ekin = 4265.97539229443 |  erot = 6910.05626781792 | epot = 0 | etot = 11176.0316601124
35000  ekin = 4265.97539229443 |  erot = 6910.05626873082 | epot = 0 | etot = 11176.0316610253
36000  ekin = 4265.97539229443 |  erot = 6910.05626956405 | epot = 0 | etot = 11176.0316618585
37000  ekin = 4266.08734738002 |  erot = 6895.03381209717 | epot = 14.9105041986326 | etot = 11176.0316636758
38000  ekin = 4268.96707818898 |  erot = 6882.79111091681 | epot = 24.2734791381461 | etot = 11176.0316682439
39000  ekin = 4272.29151833407 |  erot = 6902.16227312659 | epot = 1.57787354117008 | etot = 11176.0316650018
40000  ekin = 4272.46894738699 |  erot = 6903.53834766156 | epot = 0.0243745776367296 | etot = 11176.0316696262
41000  ekin = 4272.9988310728 |  erot = 6902.42623825562 | epot = 0.606601469554298 | etot = 11176.031670798
42000  ekin = 4273.6853822148 |  erot = 6902.24716276899 | epot = 0.0991265190969406 | etot = 11176.0316715029
43000  ekin = 4273.73772447112 |  erot = 6902.29394814905 | epot = 0 | etot = 11176.0316726202
44000  ekin = 4273.73772447112 |  erot = 6902.2939489789 | epot = 0 | etot = 11176.03167345
45000  ekin = 4273.73772447112 |  erot = 6902.29394987629 | epot = 0 | etot = 11176.0316743474
46000  ekin = 4273.73772447112 |  erot = 6902.29395082237 | epot = 0 | etot = 11176.0316752935
47000  ekin = 4273.73772447112 |  erot = 6902.2939516859 | epot = 0 | etot = 11176.031676157
48000  ekin = 4273.73772447112 |  erot = 6902.2939525195 | epot = 0 | etot = 11176.0316769906
49000  ekin = 4273.73772447112 |  erot = 6902.29395343323 | epot = 0 | etot = 11176.0316779043
50000  ekin = 4273.73772447112 |  erot = 6902.29395437092 | epot = 0 | etot = 11176.031678842
51000  ekin = 4273.73772447112 |  erot = 6902.2939552207 | epot = 0 | etot = 11176.0316796918
52000  ekin = 4273.73772447112 |  erot = 6902.29395606215 | epot = 0 | etot = 11176.0316805333
53000  ekin = 4273.73772447112 |  erot = 6902.29395699076 | epot = 0 | etot = 11176.0316814619
54000  ekin = 4273.73772447112 |  erot = 6902.29395791613 | epot = 0 | etot = 11176.0316823872
55000  ekin = 4273.73772447112 |  erot = 6902.29395875552 | epot = 0 | etot = 11176.0316832266
56000  ekin = 4273.73772447112 |  erot = 6902.29395960855 | epot = 0 | etot = 11176.0316840797
57000  ekin = 4273.73772447112 |  erot = 6902.29396054892 | epot = 0 | etot = 11176.03168502
58000  ekin = 4273.73772447112 |  erot = 6902.29396145912 | epot = 0 | etot = 11176.0316859302
59000  ekin = 4273.73772447112 |  erot = 6902.2939622917 | epot = 0 | etot = 11176.0316867628
60000  ekin = 4273.73772447112 |  erot = 6902.29396315899 | epot = 0 | etot = 11176.0316876301
61000  ekin = 4273.73772447112 |  erot = 6902.29396410623 | epot = 0 | etot = 11176.0316885773
62000  ekin = 4273.73772447112 |  erot = 6902.29396499932 | epot = 0 | etot = 11176.0316894704
63000  ekin = 4273.73772447112 |  erot = 6902.29396582848 | epot = 0 | etot = 11176.0316902996
64000  ekin = 4273.73772447112 |  erot = 6902.2939667117 | epot = 0 | etot = 11176.0316911828
65000  ekin = 4273.73772447112 |  erot = 6902.29396766028 | epot = 0 | etot = 11176.0316921314
66000  ekin = 4273.73772447112 |  erot = 6902.2939685364 | epot = 0 | etot = 11176.0316930075
67000  ekin = 4273.73772447112 |  erot = 6902.29396936635 | epot = 0 | etot = 11176.0316938375
68000  ekin = 4273.73772447112 |  erot = 6902.29397026663 | epot = 0 | etot = 11176.0316947377
69000  ekin = 4273.73772447112 |  erot = 6902.29397121145 | epot = 0 | etot = 11176.0316956826
70000  ekin = 4273.73772447112 |  erot = 6902.29397207233 | epot = 0 | etot = 11176.0316965434
71000  ekin = 4273.73772447112 |  erot = 6902.29397290738 | epot = 0 | etot = 11176.0316973785
72000  ekin = 4273.73772447112 |  erot = 6902.29397382441 | epot = 0 | etot = 11176.0316982955
73000  ekin = 4273.73772447112 |  erot = 6902.29397476046 | epot = 0 | etot = 11176.0316992316
74000  ekin = 4273.73772447112 |  erot = 6902.29397560834 | epot = 0 | etot = 11176.0317000795
75000  ekin = 4273.73772447112 |  erot = 6902.29397645188 | epot = 0 | etot = 11176.031700923
76000  ekin = 4273.73772447112 |  erot = 6902.29397738302 | epot = 0 | etot = 11176.0317018541
77000  ekin = 4273.73772447112 |  erot = 6902.29397830565 | epot = 0 | etot = 11176.0317027768
78000  ekin = 4273.73772447112 |  erot = 6902.29397914329 | epot = 0 | etot = 11176.0317036144
79000  ekin = 4273.73772447112 |  erot = 6902.29397999851 | epot = 0 | etot = 11176.0317044696
80000  ekin = 4273.73772447112 |  erot = 6902.29398094024 | epot = 0 | etot = 11176.0317054114
81000  ekin = 4273.73772447112 |  erot = 6902.29398184704 | epot = 0 | etot = 11176.0317063182
82000  ekin = 4273.73772447112 |  erot = 6902.29398267843 | epot = 0 | etot = 11176.0317071495
83000  ekin = 4273.73772447112 |  erot = 6902.29398354844 | epot = 0 | etot = 11176.0317080196
84000  ekin = 4273.73772447112 |  erot = 6902.29398449637 | epot = 0 | etot = 11176.0317089675
85000  ekin = 4273.73772447112 |  erot = 6902.29398538646 | epot = 0 | etot = 11176.0317098576
86000  ekin = 4273.73772447112 |  erot = 6902.29398621574 | epot = 0 | etot = 11176.0317106869
87000  ekin = 4273.73772447112 |  erot = 6902.29398710243 | epot = 0 | etot = 11176.0317115735
88000  ekin = 4273.73772447112 |  erot = 6902.29398805106 | epot = 0 | etot = 11176.0317125222
89000  ekin = 4273.73772447112 |  erot = 6902.29398892447 | epot = 0 | etot = 11176.0317133956
90000  ekin = 4273.73772447112 |  erot = 6902.2939897552 | epot = 0 | etot = 11176.0317142263
91000  ekin = 4273.73772447112 |  erot = 6902.29399065871 | epot = 0 | etot = 11176.0317151298
92000  ekin = 4273.73772447112 |  erot = 6902.29399160214 | epot = 0 | etot = 11176.0317160733
93000  ekin = 4273.73772447112 |  erot = 6902.29399246018 | epot = 0 | etot = 11176.0317169313
94000  ekin = 4273.73772447112 |  erot = 6902.2939932962 | epot = 0 | etot = 11176.0317177673
95000  ekin = 4273.73772447112 |  erot = 6902.29399421573 | epot = 0 | etot = 11176.0317186868
96000  ekin = 4273.73772447112 |  erot = 6902.29399514925 | epot = 0 | etot = 11176.0317196204
97000  ekin = 4273.73772447112 |  erot = 6902.29399599482 | epot = 0 | etot = 11176.0317204659
98000  ekin = 4273.73772447112 |  erot = 6902.29399684027 | epot = 0 | etot = 11176.0317213114
99000  ekin = 4273.73772447112 |  erot = 6902.29399777383 | epot = 0 | etot = 11176.0317222449
100000  ekin = 4273.73772447112 |  erot = 6902.29399869397 | epot = 0 | etot = 11176.0317231651
    100000   316.57316      0              0              427.37377      0.044518101  
Loop time of 5.52435 on 2 procs for 100000 steps with 10 atoms

Performance: 1563.986 tau/day, 18101.686 timesteps/s, 181.017 katom-step/s
100.0% CPU use with 2 MPI tasks x 1 OpenMP threads

MPI task timing breakdown:
Section |  min time  |  avg time  |  max time  |%varavg| %total
---------------------------------------------------------------
Pair    | 2.2987     | 2.5416     | 2.7845     |  15.2 | 46.01
Neigh   | 0.0013881  | 0.0015074  | 0.0016267  |   0.3 |  0.03
Comm    | 0.87535    | 1.1139     | 1.3524     |  22.6 | 20.16
Output  | 0.0012818  | 0.0013486  | 0.0014153  |   0.2 |  0.02
Modify  | 0.63061    | 0.68152    | 0.73243    |   6.2 | 12.34
Other   |            | 1.184      |            |       | 21.44

Nlocal:              5 ave           8 max           2 min
Histogram: 1 0 0 0 0 0 0 0 0 1
Nghost:              2 ave           3 max           1 min
Histogram: 1 0 0 0 0 0 0 0 0 1
Neighs:              1 ave           2 max           0 min
Histogram: 1 0 0 0 0 0 0 0 0 1

Total # of neighbors = 2
Ave neighs/atom = 0.2
Neighbor list builds = 28
Dangerous builds = 0
Total wall time: 0:00:05
