LAMMPS (29 Aug 2024 - Development - patch_27Jun2024-1407-g9b3a129b99-modified)
Reading data file ...
  orthogonal box = (-20 -20 -20) to (20 20 20)
  1 by 1 by 1 MPI processor grid
  reading atoms ...
  10 atoms
  reading velocities ...
  10 velocities
  10 ellipsoids
  read_data CPU = 0.001 seconds
10 atoms in group all

CITE-CITE-CITE-CITE-CITE-CITE-CITE-CITE-CITE-CITE-CITE-CITE-CITE

Your simulation uses code contributions which should be cited:
- Type Label Framework: https://doi.org/10.1021/acs.jpcb.3c08419
The log file lists these citations in BibTeX format.

CITE-CITE-CITE-CITE-CITE-CITE-CITE-CITE-CITE-CITE-CITE-CITE-CITE

Generated 0 of 6 mixed pair_coeff terms from geometric mixing rule
Neighbor list info ...
  update: every = 1 steps, delay = 0 steps, check = yes
  max neighbors/atom: 2000, page size: 100000
  master list distance cutoff = 2.7118792
  ghost atom cutoff = 2.7118792
  binsize = 1.3559396, bins = 30 30 30
  1 neighbor lists, perpetual/occasional/extra = 1 0 0
  (1) pair oxdna/excv, perpetual
      attributes: half, newton on
      pair build: half/bin/atomonly/newton
      stencil: half/bin/3d
      bin: standard
Setting up Verlet run ...
  Unit style    : lj
  Current step  : 0
  Time step     : 1e-06
0  ekin = 0.0408626847564314 |  erot = 923.232539575778 | epot = 10253.6666682448 | etot = 11176.9400705053
Per MPI rank memory allocation (min/avg/max) = 4.907 | 4.907 | 4.907 Mbytes
   Step          Temp          E_pair         E_mol          TotEng         Press     
         0   0.0030268655   1025.3667      0              1025.3708     -0.019817177  
1000  ekin = 2374.02411598224 |  erot = 8656.57544202408 | epot = 145.431663118679 | etot = 11176.031221125
2000  ekin = 3785.60212167198 |  erot = 7190.94035084354 | epot = 199.489137650508 | etot = 11176.031610166
3000  ekin = 3924.31631366513 |  erot = 7231.2385117221 | epot = 20.4763403046742 | etot = 11176.0311656919
4000  ekin = 4020.33090314053 |  erot = 7048.2250658143 | epot = 107.475356526033 | etot = 11176.0313254809
5000  ekin = 4066.82141438947 |  erot = 6991.47563405317 | epot = 117.734270657314 | etot = 11176.0313191
6000  ekin = 4128.66174867405 |  erot = 6970.85670992138 | epot = 76.513191694447 | etot = 11176.0316502899
7000  ekin = 4119.10892019852 |  erot = 6989.66907860062 | epot = 67.2535921290842 | etot = 11176.0315909282
8000  ekin = 4160.16423319924 |  erot = 6935.12647741959 | epot = 80.7407832343829 | etot = 11176.0314938532
9000  ekin = 4174.37520805668 |  erot = 6998.86927186627 | epot = 2.78718048610815 | etot = 11176.0316604091
10000  ekin = 4175.05269771965 |  erot = 6994.91500374189 | epot = 6.06390399813198 | etot = 11176.0316054597
11000  ekin = 4246.02824691643 |  erot = 6928.07784398203 | epot = 1.9255267481417 | etot = 11176.0316176466
12000  ekin = 4243.02038437693 |  erot = 6920.51827078416 | epot = 12.4930051103988 | etot = 11176.0316602715
13000  ekin = 4256.15237437141 |  erot = 6919.20951923352 | epot = 0.669743955152762 | etot = 11176.0316375601
14000  ekin = 4260.12550812066 |  erot = 6908.2716157732 | epot = 7.63451977019695 | etot = 11176.0316436641
15000  ekin = 4265.91693933246 |  erot = 6909.97880307022 | epot = 0.135898602725533 | etot = 11176.0316410054
16000  ekin = 4265.97539229441 |  erot = 6910.05625188318 | epot = 0 | etot = 11176.0316441776
17000  ekin = 4265.97539229441 |  erot = 6910.05625271324 | epot = 0 | etot = 11176.0316450076
18000  ekin = 4265.97539229441 |  erot = 6910.05625359046 | epot = 0 | etot = 11176.0316458849
19000  ekin = 4265.97539229441 |  erot = 6910.05625453927 | epot = 0 | etot = 11176.0316468337
20000  ekin = 4265.97539229441 |  erot = 6910.05625542163 | epot = 0 | etot = 11176.031647716
21000  ekin = 4265.97539229441 |  erot = 6910.05625625079 | epot = 0 | etot = 11176.0316485452
22000  ekin = 4265.97539229441 |  erot = 6910.05625714469 | epot = 0 | etot = 11176.0316494391
23000  ekin = 4265.97539229441 |  erot = 6910.05625809148 | epot = 0 | etot = 11176.0316503859
24000  ekin = 4265.97539229441 |  erot = 6910.05625895767 | epot = 0 | etot = 11176.0316512521
25000  ekin = 4265.97539229441 |  erot = 6910.05625979021 | epot = 0 | etot = 11176.0316520846
26000  ekin = 4265.97539229441 |  erot = 6910.05626070107 | epot = 0 | etot = 11176.0316529955
27000  ekin = 4265.97539229441 |  erot = 6910.05626164082 | epot = 0 | etot = 11176.0316539352
28000  ekin = 4265.97539229441 |  erot = 6910.05626249321 | epot = 0 | etot = 11176.0316547876
29000  ekin = 4265.97539229441 |  erot = 6910.05626333325 | epot = 0 | etot = 11176.0316556277
30000  ekin = 4265.97539229441 |  erot = 6910.05626425957 | epot = 0 | etot = 11176.031656554
31000  ekin = 4265.97539229441 |  erot = 6910.05626518772 | epot = 0 | etot = 11176.0316574821
32000  ekin = 4265.97539229441 |  erot = 6910.05626602891 | epot = 0 | etot = 11176.0316583233
33000  ekin = 4265.97539229441 |  erot = 6910.05626687953 | epot = 0 | etot = 11176.0316591739
34000  ekin = 4265.97539229441 |  erot = 6910.05626781786 | epot = 0 | etot = 11176.0316601123
35000  ekin = 4265.97539229441 |  erot = 6910.05626873075 | epot = 0 | etot = 11176.0316610252
36000  ekin = 4265.97539229441 |  erot = 6910.05626956397 | epot = 0 | etot = 11176.0316618584
37000  ekin = 4266.08734738001 |  erot = 6895.03381209711 | epot = 14.9105041986286 | etot = 11176.0316636757
38000  ekin = 4268.96707818897 |  erot = 6882.79111091671 | epot = 24.2734791381659 | etot = 11176.0316682438
39000  ekin = 4272.29151833407 |  erot = 6902.16227312649 | epot = 1.57787354117297 | etot = 11176.0316650017
40000  ekin = 4272.46894738699 |  erot = 6903.53834766144 | epot = 0.0243745776374837 | etot = 11176.0316696261
41000  ekin = 4272.9988310728 |  erot = 6902.42623825549 | epot = 0.606601469562757 | etot = 11176.0316707979
42000  ekin = 4273.68538221481 |  erot = 6902.24716276888 | epot = 0.0991265191006611 | etot = 11176.0316715028
43000  ekin = 4273.73772447113 |  erot = 6902.29394814895 | epot = 0 | etot = 11176.0316726201
44000  ekin = 4273.73772447113 |  erot = 6902.29394897878 | epot = 0 | etot = 11176.0316734499
45000  ekin = 4273.73772447113 |  erot = 6902.29394987618 | epot = 0 | etot = 11176.0316743473
46000  ekin = 4273.73772447113 |  erot = 6902.29395082224 | epot = 0 | etot = 11176.0316752934
47000  ekin = 4273.73772447113 |  erot = 6902.29395168581 | epot = 0 | etot = 11176.0316761569
48000  ekin = 4273.73772447113 |  erot = 6902.29395251942 | epot = 0 | etot = 11176.0316769906
49000  ekin = 4273.73772447113 |  erot = 6902.29395343316 | epot = 0 | etot = 11176.0316779043
50000  ekin = 4273.73772447113 |  erot = 6902.29395437085 | epot = 0 | etot = 11176.031678842
51000  ekin = 4273.73772447113 |  erot = 6902.29395522064 | epot = 0 | etot = 11176.0316796918
52000  ekin = 4273.73772447113 |  erot = 6902.2939560621 | epot = 0 | etot = 11176.0316805332
53000  ekin = 4273.73772447113 |  erot = 6902.2939569907 | epot = 0 | etot = 11176.0316814618
54000  ekin = 4273.73772447113 |  erot = 6902.29395791608 | epot = 0 | etot = 11176.0316823872
55000  ekin = 4273.73772447113 |  erot = 6902.29395875544 | epot = 0 | etot = 11176.0316832266
56000  ekin = 4273.73772447113 |  erot = 6902.29395960848 | epot = 0 | etot = 11176.0316840796
57000  ekin = 4273.73772447113 |  erot = 6902.29396054885 | epot = 0 | etot = 11176.03168502
58000  ekin = 4273.73772447113 |  erot = 6902.29396145904 | epot = 0 | etot = 11176.0316859302
59000  ekin = 4273.73772447113 |  erot = 6902.2939622916 | epot = 0 | etot = 11176.0316867627
60000  ekin = 4273.73772447113 |  erot = 6902.29396315887 | epot = 0 | etot = 11176.03168763
61000  ekin = 4273.73772447113 |  erot = 6902.29396410611 | epot = 0 | etot = 11176.0316885772
62000  ekin = 4273.73772447113 |  erot = 6902.29396499921 | epot = 0 | etot = 11176.0316894703
63000  ekin = 4273.73772447113 |  erot = 6902.29396582835 | epot = 0 | etot = 11176.0316902995
64000  ekin = 4273.73772447113 |  erot = 6902.29396671155 | epot = 0 | etot = 11176.0316911827
65000  ekin = 4273.73772447113 |  erot = 6902.29396766016 | epot = 0 | etot = 11176.0316921313
66000  ekin = 4273.73772447113 |  erot = 6902.29396853628 | epot = 0 | etot = 11176.0316930074
67000  ekin = 4273.73772447113 |  erot = 6902.29396936619 | epot = 0 | etot = 11176.0316938373
68000  ekin = 4273.73772447113 |  erot = 6902.29397026646 | epot = 0 | etot = 11176.0316947376
69000  ekin = 4273.73772447113 |  erot = 6902.29397121127 | epot = 0 | etot = 11176.0316956824
70000  ekin = 4273.73772447113 |  erot = 6902.29397207217 | epot = 0 | etot = 11176.0316965433
71000  ekin = 4273.73772447113 |  erot = 6902.29397290722 | epot = 0 | etot = 11176.0316973783
72000  ekin = 4273.73772447113 |  erot = 6902.29397382425 | epot = 0 | etot = 11176.0316982954
73000  ekin = 4273.73772447113 |  erot = 6902.29397476031 | epot = 0 | etot = 11176.0316992314
74000  ekin = 4273.73772447113 |  erot = 6902.29397560821 | epot = 0 | etot = 11176.0317000793
75000  ekin = 4273.73772447113 |  erot = 6902.29397645176 | epot = 0 | etot = 11176.0317009229
76000  ekin = 4273.73772447113 |  erot = 6902.29397738289 | epot = 0 | etot = 11176.031701854
77000  ekin = 4273.73772447113 |  erot = 6902.29397830551 | epot = 0 | etot = 11176.0317027766
78000  ekin = 4273.73772447113 |  erot = 6902.29397914316 | epot = 0 | etot = 11176.0317036143
79000  ekin = 4273.73772447113 |  erot = 6902.29397999838 | epot = 0 | etot = 11176.0317044695
80000  ekin = 4273.73772447113 |  erot = 6902.29398094012 | epot = 0 | etot = 11176.0317054112
81000  ekin = 4273.73772447113 |  erot = 6902.29398184692 | epot = 0 | etot = 11176.0317063181
82000  ekin = 4273.73772447113 |  erot = 6902.29398267831 | epot = 0 | etot = 11176.0317071494
83000  ekin = 4273.73772447113 |  erot = 6902.29398354836 | epot = 0 | etot = 11176.0317080195
84000  ekin = 4273.73772447113 |  erot = 6902.29398449627 | epot = 0 | etot = 11176.0317089674
85000  ekin = 4273.73772447113 |  erot = 6902.29398538637 | epot = 0 | etot = 11176.0317098575
86000  ekin = 4273.73772447113 |  erot = 6902.29398621565 | epot = 0 | etot = 11176.0317106868
87000  ekin = 4273.73772447113 |  erot = 6902.29398710233 | epot = 0 | etot = 11176.0317115735
88000  ekin = 4273.73772447113 |  erot = 6902.29398805095 | epot = 0 | etot = 11176.0317125221
89000  ekin = 4273.73772447113 |  erot = 6902.29398892436 | epot = 0 | etot = 11176.0317133955
90000  ekin = 4273.73772447113 |  erot = 6902.29398975509 | epot = 0 | etot = 11176.0317142262
91000  ekin = 4273.73772447113 |  erot = 6902.29399065857 | epot = 0 | etot = 11176.0317151297
92000  ekin = 4273.73772447113 |  erot = 6902.29399160201 | epot = 0 | etot = 11176.0317160731
93000  ekin = 4273.73772447113 |  erot = 6902.29399246003 | epot = 0 | etot = 11176.0317169312
94000  ekin = 4273.73772447113 |  erot = 6902.29399329606 | epot = 0 | etot = 11176.0317177672
95000  ekin = 4273.73772447113 |  erot = 6902.29399421554 | epot = 0 | etot = 11176.0317186867
96000  ekin = 4273.73772447113 |  erot = 6902.29399514905 | epot = 0 | etot = 11176.0317196202
97000  ekin = 4273.73772447113 |  erot = 6902.29399599463 | epot = 0 | etot = 11176.0317204658
98000  ekin = 4273.73772447113 |  erot = 6902.29399684007 | epot = 0 | etot = 11176.0317213112
99000  ekin = 4273.73772447113 |  erot = 6902.2939977736 | epot = 0 | etot = 11176.0317222447
100000  ekin = 4273.73772447113 |  erot = 6902.29399869374 | epot = 0 | etot = 11176.0317231649
    100000   316.57316      0              0              427.37377      0.044518101  
Loop time of 0.237705 on 1 procs for 100000 steps with 10 atoms

Performance: 36347.582 tau/day, 420689.602 timesteps/s, 4.207 Matom-step/s
100.0% CPU use with 1 MPI tasks x no OpenMP threads

MPI task timing breakdown:
Section |  min time  |  avg time  |  max time  |%varavg| %total
---------------------------------------------------------------
Pair    | 0.067661   | 0.067661   | 0.067661   |   0.0 | 28.46
Neigh   | 0.00068751 | 0.00068751 | 0.00068751 |   0.0 |  0.29
Comm    | 0.023543   | 0.023543   | 0.023543   |   0.0 |  9.90
Output  | 0.0019468  | 0.0019468  | 0.0019468  |   0.0 |  0.82
Modify  | 0.12085    | 0.12085    | 0.12085    |   0.0 | 50.84
Other   |            | 0.02302    |            |       |  9.68

Nlocal:             10 ave          10 max          10 min
Histogram: 1 0 0 0 0 0 0 0 0 0
Nghost:              0 ave           0 max           0 min
Histogram: 1 0 0 0 0 0 0 0 0 0
Neighs:              2 ave           2 max           2 min
Histogram: 1 0 0 0 0 0 0 0 0 0

Total # of neighbors = 2
Ave neighs/atom = 0.2
Neighbor list builds = 28
Dangerous builds = 0
Total wall time: 0:00:00
