ITEM: TIMESTEP
0
ITEM: NUMBER OF ATOMS
16
ITEM: BOX BOUNDS pp pp pp
-2.0000000000000000e+01 2.0000000000000000e+01
-2.0000000000000000e+01 2.0000000000000000e+01
-2.0000000000000000e+01 2.0000000000000000e+01
ITEM: ATOMS id mol type x y z ix iy iz vx vy vz c_quat[1] c_quat[2] c_quat[3] c_quat[4] angmomx angmomy angmomz
1 1 1 -6.133472972454725e-01 -6.574781716697660e-01  3.606522635120190e-01 0 0 0  5.386890022865587e-02  2.262922525602673e-02  2.488229114473675e-01  9.964752158482045e-01 -5.325355573323980e-02  1.139116380710251e-02 -6.380787090289707e-02  1.772010258006941e-01 -2.958853170000101e-01 -2.624137503614725e-01
2 1 2 -4.526276424735636e-01 -1.003065053434591e+00  7.258693379233347e-01 0 0 0 -3.995003075629463e-02  2.696951106370198e-01 -1.898645454819566e-01  9.369923833143513e-01  1.122071604464856e-01  6.732538499716349e-02  3.239168400846305e-01 -3.061453937596818e-02 -1.176951893148060e-01  4.007470242647321e-02
3 1 3 -9.883421085226410e-02 -1.239775807128057e+00  1.069462285786363e+00 0 0 0 -2.078453529520138e-01 -1.362872235767304e-01 -6.062477950201746e-02  7.979649320918270e-01  1.447309635452787e-01  1.837414269936639e-01  5.554673737937029e-01 -3.676034584820381e-02 -6.308707793373186e-02 -1.479860157608762e-01
4 1 4  2.937771854299732e-01 -1.257975092489984e+00  1.425891608660697e+00 0 0 0 -2.396982418131700e-01 -5.624721730878831e-01  3.247442290503672e-02  5.660864821344559e-01  1.468827549948105e-01  9.873742533340191e-02  8.051226439917721e-01 -1.652364596501651e-01  2.860623077030974e-01  3.354351975310588e-01
5 1 1  6.286896795685137e-01 -1.018334339511974e+00  1.768934633967282e+00 0 0 0 -1.611489735682835e-01 -2.288969747076015e-01 -1.355332496264956e-01  2.533023785125306e-01  1.206231316167983e-01  8.583012223905846e-02  9.559922359911086e-01  7.151030852881342e-02 -9.415592891043179e-02  1.342288153931229e-01
6 1 2  7.901522619067926e-01 -6.766341805565266e-01  2.154016070549575e+00 0 0 0 -4.701706588477693e-02  1.921671558511004e-01  1.458824279129722e-01 -3.855807343534716e-02  8.405913137017908e-02  2.236505169306371e-02  9.954632800204194e-01  9.218622989776322e-02 -5.640128930702024e-01  9.287105657777776e-02
7 1 3  7.115777184886863e-01 -4.019557932514345e-01  2.569568683291525e+00 0 0 0  5.098438305112513e-02 -3.845955552200959e-02 -1.424419628574967e-01 -4.559284433024802e-01  1.004550065061007e-01 -5.252474529475878e-02  8.827679181910482e-01  3.479046835475834e-01  4.244922695910593e-01 -1.358288260435836e-01
8 1 4  4.697331037700523e-01 -3.025169796710703e-01  3.066800711751922e+00 0 0 0  3.782797134841193e-01 -4.953992506010833e-02  1.626392045834847e-01  7.680212215404908e-01 -9.582139884533597e-03  3.658677589040892e-02 -6.393066507464399e-01  4.428876596361290e-02  7.868414126013584e-02 -1.271360044432503e-01
9 2 1  4.056113349449848e-01 -1.443775499211898e+00  3.059072650334112e+00 0 0 0  4.912038408665491e-02  4.126064731871670e-02  1.222385633449523e-02 -2.329997575451234e-01  6.886863952313410e-01  6.747873944883376e-01 -1.268232401684158e-01  3.282916621721876e-02 -1.267054709525600e-04  1.559787854176960e-01
10 2 2 -3.202842905928752e-02 -1.294752097116472e+00  2.720107115139219e+00 0 0 0  1.939216183073483e-01  1.107523548538194e-01 -4.050505160199710e-02 -2.466206187190723e-01  8.744456399178389e-01  3.937083608782400e-01 -1.397026120939516e-01 -1.700813500181381e-01 -4.563093565840761e-01 -3.031851362703951e-01
11 2 3 -3.161385511231407e-01 -9.084141759061610e-01  2.412520787178201e+00 0 0 0 -3.513607339206460e-01 -1.882241906753569e-01  3.614793819905130e-01 -8.747590085090901e-02  9.773676023882290e-01  1.449354911309558e-01 -1.268630757266878e-01 -3.708221604627426e-01 -4.910838182594122e-01  9.435948331955418e-02
12 2 4 -3.893939125182100e-01 -4.866605488242819e-01  2.006177777000426e+00 0 0 0 -1.188642917357977e-01  2.235528245655188e-01  9.265586122144348e-03 -3.181169300779214e-02  9.634374984140114e-01 -2.442360692534372e-01 -1.054748563087919e-01 -2.823010018885836e-01  1.027648566082889e-01  1.017523347678070e-01
13 3 1 -6.232643040853296e-02 -7.155965522127403e-02  1.559320605273073e+00 0 0 0 -1.446616296238799e-01 -1.155205990978724e-01  1.331477187595642e-01 -3.278607069657226e-02  7.922941528811774e-01 -6.084214170523914e-01 -3.191282109962716e-02 -2.549872189037434e-01  2.754663721641154e-01  5.806416868630132e-02
14 3 2  1.788409039091338e-01 -5.516721349427172e-02  1.021273149730912e+00 0 0 0  5.154712003586254e-02 -3.661102651077563e-01 -6.630782880801242e-02  4.718868628834146e-02  6.316396208287698e-01 -7.737349519945348e-01  1.178309584462780e-02 -1.199984717331652e-01  6.844768922886051e-02  2.161595932308759e-01
15 3 3  4.513439961906000e-01 -2.379560738327457e-01  5.957328539615993e-01 0 0 0 -2.021424496209139e-01  2.334122693355961e-01  8.133374252278069e-03 -5.869980642620334e-02 -3.422935820341442e-01  9.376740835056506e-01  1.251996587850869e-02 -1.701391112413525e-01  1.870292260510287e-02 -2.682954134361106e-01
16 3 4  5.077649359807965e-01 -5.565625134533538e-01  1.655875784458841e-01 0 0 0 -1.920213116286801e-01 -8.105295741355378e-02 -4.693508108850740e-02 -8.582818143150042e-02  8.707732197394232e-04  9.939540921464659e-01 -6.846917358531610e-02  1.733210765264759e-02 -3.287658886280769e-01  1.085334141225924e-01
ITEM: TIMESTEP
1000
ITEM: NUMBER OF ATOMS
16
ITEM: BOX BOUNDS pp pp pp
-2.0000000000000000e+01 2.0000000000000000e+01
-2.0000000000000000e+01 2.0000000000000000e+01
-2.0000000000000000e+01 2.0000000000000000e+01
ITEM: ATOMS id mol type x y z ix iy iz vx vy vz c_quat[1] c_quat[2] c_quat[3] c_quat[4] angmomx angmomy angmomz
1 1 1 -6.128610371907945e-01 -6.573036932272216e-01  3.630457416699754e-01 0 0 0  4.339023260213535e-02  1.230126966082696e-02  2.293686544097141e-01  9.964256627172752e-01 -5.085287652110042e-02  8.605682114830298e-03 -6.690161330870566e-02  2.016442485122543e-01 -2.422394299030969e-01 -2.538864245225235e-01
2 1 2 -4.530582053130334e-01 -1.000366870387771e+00  7.238836657851314e-01 0 0 0 -4.617488758797113e-02  2.695759300634155e-01 -2.064871756058690e-01  9.369830019969473e-01  1.112803033186944e-01  6.643821330092724e-02  3.244464699691906e-01 -6.354238715916799e-02 -9.006586847192483e-02  4.022206738790821e-02
3 1 3 -1.009487904509237e-01 -1.241055825211484e+00  1.069061648445921e+00 0 0 0 -2.149648754314643e-01 -1.197762159919601e-01 -1.944829484467251e-02  7.991215457504899e-01  1.444998144039190e-01  1.826960364002490e-01  5.542081892558244e-01  3.630674896160388e-02 -1.096378068020869e-01 -1.574915733395316e-01
4 1 4  2.913982288053452e-01 -1.263516020266014e+00  1.426133883390715e+00 0 0 0 -2.360881033988204e-01 -5.454649923316764e-01  1.618484580728091e-02  5.629293558414511e-01  1.479296223055655e-01  1.028256654553762e-01  8.066314212204487e-01 -1.972067833508163e-01  2.791148979268205e-01  3.414942129463429e-01
5 1 1  6.271401264882076e-01 -1.020677141268070e+00  1.767552178145798e+00 0 0 0 -1.487413181525199e-01 -2.394030766377375e-01 -1.405099503996456e-01  2.518101603478567e-01  1.196768037376485e-01  8.493434413545675e-02  9.565852094711724e-01  7.605433545205492e-02 -9.237648970552226e-02  1.355905211629979e-01
6 1 2  7.897835375677084e-01 -6.747356881807328e-01  2.155545306357416e+00 0 0 0 -2.725935018131786e-02  1.871109893976906e-01  1.608348253990270e-01 -3.971407941882883e-02  7.776692563475572e-02  2.168109534971647e-02  9.959442892439667e-01  8.711785300189144e-02 -5.222405705483411e-01  1.185315905463489e-01
7 1 3  7.121159936746460e-01 -4.022441356059798e-01  2.568283508667472e+00 0 0 0  5.694219750793943e-02 -1.907473538176728e-02 -1.142181552579364e-01 -4.547059738274709e-01  1.028968029073524e-01 -5.830329067381514e-02  8.827544684756127e-01  3.245979451529306e-01  4.206659057519622e-01 -1.290486210897137e-01
8 1 4  4.735450662315469e-01 -3.030225111865728e-01  3.068400230841504e+00 0 0 0  3.840604134973952e-01 -5.156742120303206e-02  1.571347005665942e-01  7.669837845596298e-01 -9.858870689299852e-03  3.760909807188727e-02 -6.404874960789934e-01  2.334250844655412e-02  9.354041968631782e-02 -1.462387346261062e-01
9 2 1  4.060719730190963e-01 -1.443401834055859e+00  3.059077180934642e+00 0 0 0  4.308728591160123e-02  3.345301764830608e-02 -1.128186864896120e-02 -2.329283588396279e-01  6.874241949986827e-01  6.760464386504675e-01 -1.270966898338045e-01  5.568685930701186e-03  1.210772142282536e-03  1.557013342298397e-01
10 2 2 -3.007055232042696e-02 -1.293671364279765e+00  2.719700716486056e+00 0 0 0  1.972324929328103e-01  1.053919944415114e-01 -4.093245156603514e-02 -2.431078893403324e-01  8.769916925528922e-01  3.918128896551922e-01 -1.351546700404774e-01 -2.086350129878356e-01 -4.565893887677404e-01 -2.691061763959770e-01
11 2 3 -3.198223777440189e-01 -9.102368120550643e-01  2.416063364786835e+00 0 0 0 -3.848274040594620e-01 -1.760091053540517e-01  3.457736980182847e-01 -8.248265895906666e-02  9.782807944455185e-01  1.457642808474859e-01 -1.221313744256695e-01 -3.551661678279701e-01 -4.708935316474316e-01  6.193317255400034e-02
12 2 4 -3.906198210500557e-01 -4.844478472600912e-01  2.006351037783379e+00 0 0 0 -1.262059852809262e-01  2.186851490273128e-01  2.523756084202526e-02 -2.826011232154862e-02  9.636981640892853e-01 -2.434867835782048e-01 -1.058366704184101e-01 -2.855099228649068e-01  1.001774942438092e-01  1.020731791630725e-01
13 3 1 -6.375067782718574e-02 -7.279420989028243e-02  1.560559492402015e+00 0 0 0 -1.402705117485465e-01 -1.314745171621037e-01  1.142691982010658e-01 -2.858222935505405e-02  7.927376512892041e-01 -6.080082555912413e-01 -3.280294996592648e-02 -2.301658222539325e-01  2.877452260382525e-01  7.404274955820543e-02
14 3 2  1.793762750788755e-01 -5.886262676758305e-02  1.020582728498993e+00 0 0 0  5.541187021019876e-02 -3.727721736721610e-01 -7.181319587282414e-02  4.849364653050967e-02  6.335251167958953e-01 -7.721016668196112e-01  1.238179022999792e-02 -9.177975694636201e-02  5.878915476642319e-02  2.193808220626849e-01
15 3 3  4.493649498582820e-01 -2.356193149957798e-01  5.958829487462143e-01 0 0 0 -1.935851343981689e-01  2.337884918070854e-01  2.162473637200393e-02 -5.968224515570815e-02 -3.392512652232219e-01  9.387388288743426e-01  1.077124975315762e-02 -2.066799918967821e-01  3.283471319648058e-02 -2.713487092593520e-01
16 3 4  5.058600780586872e-01 -5.573582428998930e-01  1.651830434175100e-01 0 0 0 -1.889948847335707e-01 -7.785888074273543e-02 -3.388074207867940e-02 -8.204625579212907e-02 -1.524622796150300e-04  9.942822960589134e-01 -6.834547834027588e-02  2.248053435685790e-02 -3.180402719334683e-01  1.113473124838301e-01
ITEM: TIMESTEP
2000
ITEM: NUMBER OF ATOMS
16
ITEM: BOX BOUNDS pp pp pp
-2.0000000000000000e+01 2.0000000000000000e+01
-2.0000000000000000e+01 2.0000000000000000e+01
-2.0000000000000000e+01 2.0000000000000000e+01
ITEM: ATOMS id mol type x y z ix iy iz vx vy vz c_quat[1] c_quat[2] c_quat[3] c_quat[4] angmomx angmomy angmomz
1 1 1 -6.124794076409689e-01 -6.572310049880696e-01  3.652295948512422e-01 0 0 0  3.293498999025431e-02  2.315525689812601e-03  2.068983418536084e-01  9.963692230230115e-01 -4.821703614262079e-02  6.458283548661275e-03 -6.986973172802970e-02  2.255407850870889e-01 -1.868798499645651e-01 -2.466564045275917e-01
2 1 2 -4.535508418086568e-01 -9.976810359780034e-01  7.217571304662105e-01 0 0 0 -5.231158589346824e-02  2.672085711162882e-01 -2.178536669088872e-01  9.369928900450929e-01  1.101166430865437e-01  6.594282953736666e-02  3.249156692942052e-01 -9.224842722595630e-02 -6.643126401912142e-02  3.940151496563746e-02
3 1 3 -1.031317124682966e-01 -1.242172390423836e+00  1.069073272314226e+00 0 0 0 -2.215444517683159e-01 -1.035843433791806e-01  2.171480293357064e-02  8.003059977348091e-01  1.446627225469235e-01  1.807478435098928e-01  5.530942268380015e-01  1.088824182645274e-01 -1.551398688289150e-01 -1.656199730077944e-01
4 1 4  2.890556384096904e-01 -1.268879656791069e+00  1.426219725137249e+00 0 0 0 -2.324137578146557e-01 -5.270367668781567e-01  1.219616887482182e-03  5.597799908412556e-01  1.487093462652851e-01  1.071474660887249e-01  8.081159030101319e-01 -2.247721984033589e-01  2.719446855315391e-01  3.427404626631952e-01
5 1 1  6.257148863659845e-01 -1.023116895007344e+00  1.766133618679332e+00 0 0 0 -1.363229000404116e-01 -2.482581902720358e-01 -1.427344659795643e-01  2.502914791355038e-01  1.187815266361307e-01  8.399949738558012e-02  9.571777310620645e-01  8.079578065331625e-02 -8.695188643554864e-02  1.370350509837986e-01
6 1 2  7.895967411373622e-01 -6.728998962470348e-01  2.157248186500443e+00 0 0 0 -1.059360071164564e-02  1.796766661896895e-01  1.804014705327854e-01 -4.116192628622052e-02  7.201175497363035e-02  2.106046141046680e-02  9.963315010252382e-01  8.110544722425068e-02 -4.693599007146236e-01  1.428622303974719e-01
7 1 3  7.127214935222205e-01 -4.023347970704256e-01  2.567290841342484e+00 0 0 0  6.437834568113179e-02  1.057972164752140e-03 -8.403745216248108e-02 -4.535253244044363e-01  1.054260525769465e-01 -6.379960920179784e-02  8.826832599679183e-01  2.990641624699504e-01  4.161479479258372e-01 -1.189775084593465e-01
8 1 4  4.774131594829792e-01 -3.035480940602420e-01  3.069940994896266e+00 0 0 0  3.894954984961372e-01 -5.352474031009760e-02  1.509067536570933e-01  7.657912236557540e-01 -1.042008767002181e-02  3.861532960547413e-02 -6.418442800744062e-01  3.117526172166592e-03  1.089472658038911e-01 -1.660166828045519e-01
9 2 1  4.064748343743896e-01 -1.443106899724170e+00  3.058847948172769e+00 0 0 0  3.758010101559112e-02  2.550725876128225e-02 -3.450675567482744e-02 -2.326524224796507e-01  6.862368326313957e-01  6.772546478845857e-01 -1.275852725556745e-01 -2.110416898321135e-02  1.937584893442546e-03  1.543387288369806e-01
10 2 2 -2.809207500300510e-02 -1.292644276472824e+00  2.719285807061526e+00 0 0 0  1.980555131967520e-01  1.000245505454350e-01 -4.215769983463222e-02 -2.391410876607830e-01  8.794464460944689e-01  3.901959393781812e-01 -1.308916251599194e-01 -2.482873955364254e-01 -4.534841283633266e-01 -2.318644666599931e-01
11 2 3 -3.238234726734897e-01 -9.119291636996868e-01  2.419413110247279e+00 0 0 0 -4.148139650606628e-01 -1.622370558269789e-01  3.231344815732327e-01 -7.773946269002636e-02  9.791525873383715e-01  1.462229838879222e-01 -1.176249362684267e-01 -3.411873000045080e-01 -4.404823281343369e-01  3.033691805815987e-02
12 2 4 -3.919155332961952e-01 -4.822929504771702e-01  2.006678889837767e+00 0 0 0 -1.327992568293129e-01  2.119864006187879e-01  4.012068318448539e-02 -2.468250329392727e-02  9.639488155185270e-01 -2.427381608387837e-01 -1.061679818221060e-01 -2.878846561997652e-01  9.899703146933062e-02  1.015234127156580e-01
13 3 1 -6.513357190448023e-02 -7.419056272277237e-02  1.561599218580678e+00 0 0 0 -1.363977235740424e-01 -1.478537525038622e-01  9.336120819385603e-02 -2.452699126454359e-02  7.932595928796231e-01 -6.074388961732134e-01 -3.399459397951403e-02 -2.021571492232066e-01  3.001006033586667e-01  8.856606630224433e-02
14 3 2  1.799469883591658e-01 -6.261872665587068e-02  1.019836648132638e+00 0 0 0  5.863021042639768e-02 -3.782545494499269e-01 -7.738895179659110e-02  4.950338872663706e-02  6.354427459377635e-01 -7.704532165192524e-01  1.279735499204208e-02 -6.268295132185209e-02  4.919037000844158e-02  2.212420275943583e-01
15 3 3  4.474736451114827e-01 -2.332834160302299e-01  5.961592288587551e-01 0 0 0 -1.846219002066553e-01  2.332310333964998e-01  3.328124125705546e-02 -6.093673087103577e-02 -3.361574270000690e-01  9.397921229383189e-01  8.698549679797281e-03 -2.395127390159937e-01  4.410726809428570e-02 -2.721533570825530e-01
16 3 4  5.039841152946664e-01 -5.581153139537351e-01  1.649110251341238e-01 0 0 0 -1.862434792177815e-01 -7.335285629338519e-02 -2.050322237481376e-02 -7.839220003848689e-02 -1.206306386521651e-03  9.945883620479010e-01 -6.817035922526286e-02  2.641561318024781e-02 -3.060631389206360e-01  1.116140312270308e-01
ITEM: TIMESTEP
3000
ITEM: NUMBER OF ATOMS
16
ITEM: BOX BOUNDS pp pp pp
-2.0000000000000000e+01 2.0000000000000000e+01
-2.0000000000000000e+01 2.0000000000000000e+01
-2.0000000000000000e+01 2.0000000000000000e+01
ITEM: ATOMS id mol type x y z ix iy iz vx vy vz c_quat[1] c_quat[2] c_quat[3] c_quat[4] angmomx angmomy angmomz
1 1 1 -6.122024960957283e-01 -6.572553807422904e-01  3.671735328077561e-01 0 0 0  2.243117285546321e-02 -7.070921461820035e-03  1.813742409861414e-01  9.963076830734691e-01 -4.535557252096028e-02  4.968455084397964e-03 -7.272679797809162e-02  2.488535632307069e-01 -1.300119897838583e-01 -2.404040925465516e-01
2 1 2 -4.541031507358150e-01 -9.950304139326692e-01  7.195475247774864e-01 0 0 0 -5.806427148488408e-02  2.625297955863504e-01 -2.229479820101266e-01  9.370234514909519e-01  1.087511926609465e-01  6.577056609794821e-02  3.253220897602265e-01 -1.156853736099776e-01 -4.799615009120509e-02  3.727747905972192e-02
3 1 3 -1.053784372257633e-01 -1.243128405210242e+00  1.069493656971074e+00 0 0 0 -2.277502418026964e-01 -8.766234442837992e-02  6.219043914337728e-02  8.015032668867600e-01  1.452151492315494e-01  1.779169951886844e-01  5.521327887623955e-01  1.798325499272543e-01 -1.992917331341778e-01 -1.718855466938825e-01
4 1 4  2.867503766422189e-01 -1.274052456216387e+00  1.426163263859783e+00 0 0 0 -2.286129021970430e-01 -5.073182405222627e-01 -1.225009527945544e-02  5.566756755374382e-01  1.492565110565414e-01  1.116511555793046e-01  8.095484578639943e-01 -2.475368480189608e-01  2.646432495621616e-01  3.391384894643191e-01
5 1 1  6.244130168926915e-01 -1.025636262593152e+00  1.764706909966302e+00 0 0 0 -1.240988557657789e-01 -2.553017618306352e-01 -1.421359268316073e-01  2.487421853498993e-01  1.179781256235406e-01  8.303397606404231e-02  9.577650264656299e-01  8.571583390921408e-02 -7.785593095304676e-02  1.384711904247164e-01
6 1 2  7.895623878480000e-01 -6.711490175283538e-01  2.159164165595543e+00 0 0 0  3.290328054082449e-03  1.701833699066691e-01  2.032173835035302e-01 -4.288572056998995e-02  6.690878311073094e-02  2.050499803750932e-02  9.966260957697806e-01  7.429079848623522e-02 -4.078463270525494e-01  1.654165267702891e-01
7 1 3  7.134074380997272e-01 -4.022208272823158e-01  2.566607378656919e+00 0 0 0  7.297771680516454e-02  2.183594179346000e-02 -5.246996136179140e-02 -4.524162627674389e-01  1.080466845327204e-01 -6.898618211469301e-02  8.825453789025632e-01  2.719541975142720e-01  4.106306355136235e-01 -1.061841649053765e-01
8 1 4  4.813336243209202e-01 -3.040922655673897e-01  3.071416313778203e+00 0 0 0  3.945252100937110e-01 -5.526003855359307e-02  1.440627716264744e-01  7.644371940095729e-01 -1.126198879837367e-02  3.961525216856383e-02 -6.433813611060685e-01 -1.626042174372925e-02  1.247997021475440e-01 -1.864038678010029e-01
9 2 1  4.068256189377151e-01 -1.442892287502619e+00  3.058388437366533e+00 0 0 0  3.268581815235577e-02  1.738205705627251e-02 -5.731381470133982e-02 -2.321739401205986e-01  6.851318785411951e-01  6.784060418831492e-01 -1.282763145398580e-01 -4.707177799945195e-02  1.975881898890249e-03  1.518983157251453e-01
10 2 2 -2.611742700031094e-02 -1.291670934286036e+00  2.718855878345055e+00 0 0 0  1.964833911877662e-01  9.463750656480438e-02 -4.388879391418303e-02 -2.347239963156597e-01  8.817942338136310e-01  3.888781085398117e-01 -1.269542888804314e-01 -2.883091258936777e-01 -4.473916528006164e-01 -1.923875910535760e-01
11 2 3 -3.281073098139859e-01 -9.134777756858176e-01  2.422507735911613e+00 0 0 0 -4.413978878649092e-01 -1.473303560385598e-01  2.949996061629766e-01 -7.324281612136120e-02  9.799776631437884e-01  1.463128677764048e-01 -1.134540186546789e-01 -3.285432702962511e-01 -4.018292001461548e-01 -2.365760383483369e-04
12 2 4 -3.932728586956030e-01 -4.802143111984945e-01  2.007148691162888e+00 0 0 0 -1.385097673073732e-01  2.034307782584801e-01  5.357887331482927e-02 -2.108607690508997e-02  9.641844489532748e-01 -2.419998118960426e-01 -1.064885759117027e-01 -2.892167622363185e-01  9.953915126178252e-02  9.999506595249606e-02
13 3 1 -6.648044713285851e-02 -7.575218370702261e-02  1.562420940909127e+00 0 0 0 -1.330684040960604e-01 -1.645029669018203e-01  7.072190374696778e-02 -2.064745711968717e-02  7.938502180491220e-01 -6.067246207707476e-01 -3.550701858006131e-02 -1.715216687468047e-01  3.124155128251263e-01  1.016494836409331e-01
14 3 2  1.805469964860502e-01 -6.642390076055538e-02  1.019035796744401e+00 0 0 0  6.128340049447014e-02 -3.825911282764531e-01 -8.270794856267678e-02  5.021460361773007e-02  6.373814207298937e-01 -7.688002380664742e-01  1.302351875605492e-02 -3.329065341192634e-02  3.981646414718217e-02  2.217325726546984e-01
15 3 3  4.456733266015105e-01 -2.309579988289865e-01  5.965407354854807e-01 0 0 0 -1.754140145171635e-01  2.316819057881542e-01  4.258829105601206e-02 -6.241132583920082e-02 -3.330388769210134e-01  9.408240234622407e-01  6.331646113325345e-03 -2.677885793197091e-01  5.177125208789211e-02 -2.706780438979864e-01
16 3 4  5.021343485109728e-01 -5.588216020244655e-01  1.647728417282362e-01 0 0 0 -1.837486549177917e-01 -6.773787337174511e-02 -7.162601537758434e-03 -7.487902096492816e-02 -2.262584277579903e-03  9.948719196406254e-01 -6.795495892352447e-02  2.920455563405564e-02 -2.933769720985988e-01  1.095974644510145e-01
ITEM: TIMESTEP
4000
ITEM: NUMBER OF ATOMS
16
ITEM: BOX BOUNDS pp pp pp
-2.0000000000000000e+01 2.0000000000000000e+01
-2.0000000000000000e+01 2.0000000000000000e+01
-2.0000000000000000e+01 2.0000000000000000e+01
ITEM: ATOMS id mol type x y z ix iy iz vx vy vz c_quat[1] c_quat[2] c_quat[3] c_quat[4] angmomx angmomy angmomz
1 1 1 -6.120311780798647e-01 -6.573698245353656e-01  3.688467480862975e-01 0 0 0  1.182222566410751e-02 -1.569687755871785e-02  1.527622639403540e-01  9.962416561390881e-01 -4.227835641557579e-02  4.153801092430401e-03 -7.548409824942688e-02  2.715485861073649e-01 -7.177351232270665e-02 -2.349525091190954e-01
2 1 2 -4.547100419981527e-01 -9.924380632467169e-01  7.173217406382509e-01 0 0 0 -6.319391343096262e-02  2.555678114778335e-01 -2.209823725914377e-01  9.370765551315620e-01  1.072252470249666e-01  6.583687873754104e-02  3.256620665986414e-01 -1.330031027492273e-01 -3.574632522086194e-02  3.361748441896483e-02
3 1 3 -1.076859197395630e-01 -1.243926556134276e+00  1.070312434395327e+00 0 0 0 -2.337159381534693e-01 -7.201819952264120e-02  1.012688838610825e-01  8.026947853158237e-01  1.461423996482635e-01  1.742343406292810e-01  5.513310032977566e-01  2.479127939256036e-01 -2.417532209129373e-01 -1.758689764545941e-01
4 1 4  2.844839731415935e-01 -1.279022110662041e+00  1.425980187533609e+00 0 0 0 -2.246346085856149e-01 -4.864259171011462e-01 -2.408084118471560e-02  5.536533724968793e-01  1.496088662631293e-01  1.162821636105110e-01  8.109029465258781e-01 -2.652009161723105e-01  2.572747082420495e-01  3.307166409060383e-01
5 1 1  6.232316818333093e-01 -1.028216470663905e+00  1.763300232116533e+00 0 0 0 -1.122418197325766e-01 -2.604089207910633e-01 -1.387411593681190e-01  2.471593472143657e-01  1.173069744737858e-01  8.204626240403477e-02  9.583421840083549e-01  9.074686224480233e-02 -6.520185952371782e-02  1.398084195977876e-01
6 1 2  7.896545042286697e-01 -6.695020235741403e-01  2.161318767468627e+00 0 0 0  1.475926646015794e-02  1.589501796833582e-01  2.279112366488867e-01 -4.486471465734430e-02  6.254442035216899e-02  2.001525718518078e-02  9.968323541806502e-01  6.688346082526185e-02 -3.401567753210994e-01  1.858866509539390e-01
7 1 3  7.141838652971516e-01 -4.018962125536338e-01  2.566244262721836e+00 0 0 0  8.242286648297464e-02  4.317408299518175e-02 -2.005513791221948e-02 -4.514035256986288e-01  1.107562492209535e-01 -7.384101457105133e-02  8.823352054703878e-01  2.438752040681871e-01  4.038441511699170e-01 -9.128341595351946e-02
8 1 4  4.853021317616144e-01 -3.046520588431287e-01  3.072820517865219e+00 0 0 0  3.990955930649974e-01 -5.662473542708113e-02  1.366984802560403e-01  7.629155699050509e-01 -1.237884215987788e-02  4.061872450767547e-02 -6.451020978749038e-01 -3.463881125901238e-02  1.409891938349797e-01 -2.073219353498953e-01
9 2 1  4.071308579792935e-01 -1.442759980511846e+00  3.057703555934265e+00 0 0 0  2.848336878335568e-02  9.040440187621620e-03 -7.955522870268290e-02 -2.314952665370452e-01  6.841164897199787e-01  6.794949688594584e-01 -1.291555548896007e-01 -7.219219049148957e-02  1.255556645800635e-03  1.483901893256407e-01
10 2 2 -2.417004407648327e-02 -1.290751757204713e+00  2.718407265589526e+00 0 0 0  1.926203243941447e-01  8.918008868103963e-02 -4.585019284629781e-02 -2.298669240867272e-01  8.840218703501136e-01  3.878730298370121e-01 -1.233735898750238e-01 -3.280400359986443e-01 -4.387139799858925e-01 -1.515793119474161e-01
11 2 3 -3.326405448597307e-01 -9.148732825963350e-01  2.425299644200635e+00 0 0 0 -4.647145952056350e-01 -1.316744822143504e-01  2.628195534508856e-01 -6.898967353219482e-02  9.807534810330818e-01  1.460402817761464e-01 -1.097053803883715e-01 -3.168814536572512e-01 -3.569723477475187e-01 -2.965655648121465e-02
12 2 4 -3.946824793136943e-01 -4.782305437518919e-01  2.007744898410676e+00 0 0 0 -1.432469670512996e-01  1.930135077885319e-01  6.536979091397482e-02 -1.747947579825897e-02  9.643995217362575e-01 -2.412823235810196e-01 -1.068216772384712e-01 -2.893586910325850e-01  1.020044656009603e-01  9.736712993559964e-02
13 3 1 -6.779674068978962e-02 -7.748103712139566e-02  1.563009014310856e+00 0 0 0 -1.302784396147034e-01 -1.812772059119233e-01  4.669091919839667e-02 -1.696622156543228e-02  7.945002822003349e-01 -6.058763112274643e-01 -3.735430902562459e-02 -1.388833561157404e-01  3.245594505490332e-01  1.133546405938948e-01
14 3 2  1.811710133165205e-01 -7.026677585518039e-02  1.018184676869572e+00 0 0 0  6.344363845779952e-02 -3.857947443698977e-01 -8.736663692751627e-02  5.063009090807510e-02  6.393293732109141e-01 -7.671531962042062e-01  1.305833059968645e-02 -4.300230415611794e-03  3.084450641419683e-02  2.208150828846248e-01
15 3 3  4.439656663101226e-01 -2.286533061822858e-01  5.970016403463715e-01 0 0 0 -1.661155624568519e-01  2.290737898855993e-01  4.909242397626325e-02 -6.404355786538039e-02 -3.299234343200630e-01  9.418254678642275e-01  3.706516521986203e-03 -2.907660100906239e-01  5.518218368735065e-02 -2.668910679995362e-01
16 3 4  5.003083829056429e-01 -5.594669623942468e-01  1.647667814322375e-01 0 0 0 -1.814934013871111e-01 -6.117309423342511e-02  5.874402628473720e-03 -7.151448523383305e-02 -3.295891303453429e-03  9.951332356675653e-01 -6.771010834475030e-02  3.090158855558482e-02 -2.803554296743963e-01  1.055112651646246e-01
ITEM: TIMESTEP
5000
ITEM: NUMBER OF ATOMS
16
ITEM: BOX BOUNDS pp pp pp
-2.0000000000000000e+01 2.0000000000000000e+01
-2.0000000000000000e+01 2.0000000000000000e+01
-2.0000000000000000e+01 2.0000000000000000e+01
ITEM: ATOMS id mol type x y z ix iy iz vx vy vz c_quat[1] c_quat[2] c_quat[3] c_quat[4] angmomx angmomy angmomz
1 1 1 -6.119663786145921e-01 -6.575667149588698e-01  3.702186668272643e-01 0 0 0  1.110632322228826e-03 -2.353635322709272e-02  1.211172881342778e-01  9.961702616072725e-01 -3.899564791782631e-02  4.029336742733228e-03 -7.815314311133703e-02  2.935852841603668e-01 -1.235342783342161e-02 -2.303432081423339e-01
2 1 2 -4.553643987078859e-01 -9.899262184597155e-01  7.151529831926619e-01 0 0 0 -6.753778139350888e-02  2.464615539066542e-01 -2.114994397342278e-01  9.371544830874180e-01  1.055847182506306e-01  6.604541127031091e-02  3.259315046926650e-01 -1.436463490876704e-01 -3.033633626369214e-02  2.833594652629385e-02
3 1 3 -1.100523216895252e-01 -1.244569932871574e+00  1.071511715586932e+00 0 0 0 -2.395509161499906e-01 -5.672545045788099e-02  1.381470148704581e-01  8.038592990321961e-01  1.474187541087125e-01  1.697431013326079e-01  5.506952132046269e-01  3.116705573000114e-01 -2.820901619981445e-01 -1.772031123621549e-01
4 1 4  2.822584080459807e-01 -1.283777401484095e+00  1.425687554175149e+00 0 0 0 -2.204395849122776e-01 -4.644612205070823e-01 -3.413925771890072e-02  5.507494458055295e-01  1.498065121679206e-01  1.209837621437138e-01  8.121551490660748e-01 -2.775360444405753e-01  2.498845281621664e-01  3.175521856310936e-01
5 1 1  6.221664974736385e-01 -1.030837709171719e+00  1.761940995511381e+00 0 0 0 -1.008885365071513e-01 -2.634980779552007e-01 -1.326769142102370e-01  2.455413410222922e-01  1.168062653040161e-01  8.104510009505425e-02  9.589042903154020e-01  9.576979336850752e-02 -4.924606387634389e-02  1.409720509258664e-01
6 1 2  7.898505895614500e-01 -6.679748782949929e-01  2.163724775057395e+00 0 0 0  2.413008565928212e-02  1.462560374155141e-01  2.533307442456293e-01 -4.707510781208952e-02  5.897873092459997e-02  1.959014803000967e-02  9.969562024598504e-01  5.910642688440923e-02 -2.683640279120107e-01  2.041205140956755e-01
7 1 3  7.150577036730155e-01 -4.013557174668188e-01  2.566207410140517e+00 0 0 0  9.241118328509144e-02  6.500089080908410e-02  1.270084316911766e-02 -4.505064211187210e-01  1.135464773942086e-01 -7.834743430319217e-02  8.820503622471196e-01  2.153822532878778e-01  3.955585610174647e-01 -7.490953466002627e-02
8 1 4  4.893138492000587e-01 -3.052230484143580e-01  3.074148813963054e+00 0 0 0  4.031601991982160e-01 -5.747617384498942e-02  1.288926570146139e-01  7.612206013340664e-01 -1.376266527314734e-02  4.163588553461402e-02 -6.470086847832340e-01 -5.183118089653375e-02  1.574015369155710e-01 -2.286764008640086e-01
9 2 1  4.073978229075546e-01 -1.442712307465045e+00  3.056799751817572e+00 0 0 0  2.504148522604448e-02  4.503882286276711e-04 -1.010704803790915e-01 -2.306193849006494e-01  6.831973197529495e-01  6.805161698493309e-01 -1.302070050497627e-01 -9.629365252976592e-02 -2.859264115877182e-04  1.438284481889007e-01
10 2 2 -2.227229393155339e-02 -1.289887843333847e+00  2.717938967694282e+00 0 0 0  1.865754593913349e-01  8.356864970304090e-02 -4.778394474684758e-02 -2.245859255304604e-01  8.861185214369557e-01  3.871873386811899e-01 -1.201710979603160e-01 -3.668854659693531e-01 -4.278466392536427e-01 -1.102965594803849e-01