LAMMPS data file via write_data, version 10 Dec 2025, timestep = 100000, units = lj

9261 atoms
1 atom types
9261 ellipsoids

0 23.113490742262385 xlo xhi
0 23.113490742262385 ylo yhi
0 23.113490742262385 zlo zhi

Atoms # ellipsoid

7 1 1 95.4929658551372 0.7593582490813499 0.7556184254962726 0.3529260092832029 0 0 0
19 1 1 95.4929658551372 4.023391770970865 0.8152667259115938 0.011311078890171683 0 0 0
23 1 1 95.4929658551372 5.14021450639617 0.8017498765588974 0.01431910387427518 0 0 0
27 1 1 95.4929658551372 6.255407647892192 0.754790914383559 0.024345936515016917 0 0 0
31 1 1 95.4929658551372 7.4157617706815095 0.8173591317781975 0.05531257611494682 0 0 0
39 1 1 95.4929658551372 9.60404991818718 0.9678734510530027 0.3140609760584427 0 0 0
89 1 1 95.4929658551372 1.0741370418807872 1.8531724047019342 0.13858763293877355 0 0 0
97 1 1 95.4929658551372 3.2773264345942645 1.8135126891169044 0.0029111850475834287 0 0 0
105 1 1 95.4929658551372 5.531234927533283 1.8377488522380336 0.04051729004113258 0 0 0
109 1 1 95.4929658551372 6.648378759660054 1.8316086650837773 0.04785128487473232 0 0 0
121 1 1 95.4929658551372 9.885588721371509 2.1866766196501755 0.19831876691351083 0 0 0
91 1 1 95.4929658551372 0.9591443891867931 2.964393370804417 0.2528346275599312 0 0 0
99 1 1 95.4929658551372 3.1565553912090207 2.973443761177202 0.01645551697004695 0 0 0
115 1 1 95.4929658551372 7.606990668292544 2.9856499693587946 0.020174358443558426 0 0 0
123 1 1 95.4929658551372 9.730606008166639 3.2919899132515806 0.3090114371390921 0 0 0
173 1 1 95.4929658551372 0.9115073837926218 4.113629692593856 0.19891226969630907 0 0 0
181 1 1 95.4929658551372 3.0336581346802425 4.059419205745685 0.018311367589827616 0 0 0
185 1 1 95.4929658551372 4.128920771502715 4.0832994460867695 0.04438480117498455 0 0 0
189 1 1 95.4929658551372 5.21804451563215 4.063802040391834 0.023504233796983798 0 0 0
4086 1 1 5.968310365946075 5.820239414975126 11.094876054222079 11.059013460460864 0 0 0
197 1 1 95.4929658551372 7.453594263683657 4.070705454733458 0.004111907953892486 0 0 0
205 1 1 95.4929658551372 9.65974025922565 4.3829975958215055 0.03471266185329951 0 0 0
211 1 1 95.4929658551372 10.612966927042212 4.954737468968991 0.025422489348207095 0 0 0
207 1 1 95.4929658551372 9.628828242973071 5.494266537630094 0.10387846681889457 0 0 0
172 1 1 95.4929658551372 0.058995431260486564 5.863755471029057 0.7705735723457702 0 0 0
293 1 1 95.4929658551372 10.597729523775637 6.063289774264736 0.06324514408871844 0 0 0
289 1 1 95.4929658551372 9.593516635152907 6.590753788955942 0.016581126553160075 0 0 0
295 1 1 95.4929658551372 10.560917771238872 7.170051416736922 0.22279448110634675 0 0 0
259 1 1 95.4929658551372 0.788421392374066 7.413518892700704 0.10897953532830329 0 0 0
291 1 1 95.4929658551372 9.610992430065622 7.696606213744698 0.1096663705884281 0 0 0
343 1 1 95.4929658551372 0.7971714650089762 8.57067405175494 0.09418813066171326 0 0 0
391 1 1 95.4929658551372 9.6541069371131 8.823467751986685 0.06646268645241632 0 0 0
345 1 1 95.4929658551372 0.5545231750734013 9.63240710998018 0.04089183204012762 0 0 0
393 1 1 95.4929658551372 9.66163581003569 9.935156428820202 0.190559369644853 0 0 0
347 1 1 95.4929658551372 1.1683272815569044 10.646213767472753 0.05027324222596931 0 0 0
395 1 1 95.4929658551372 10.005704302274266 11.193202312475961 0.29713481823831195 0 0 0
6 1 1 95.4929658551372 0.9002105727640832 0.024567135141637005 1.2315163959414286 0 0 0
10 1 1 95.4929658551372 1.93310680766828 0.3575365386181198 0.8598963538607419 0 0 0
14 1 1 95.4929658551372 3.2245947614882455 0.29872283194038013 0.9373098571263845 0 0 0
18 1 1 95.4929658551372 4.356855651711463 0.2923149850063593 0.9632913518702402 0 0 0
22 1 1 95.4929658551372 5.513677551263712 0.2947162726788209 0.9632451269317879 0 0 0
26 1 1 95.4929658551372 6.687852788030487 0.3249096241680989 0.973811636847234 0 0 0
30 1 1 95.4929658551372 7.815202435935943 0.34438604272917367 0.9795925179547774 0 0 0
34 1 1 95.4929658551372 8.971335248992615 0.3141201382951619 0.8588541393443299 0 0 0
42 1 1 95.4929658551372 10.903187762073223 0.3498860685082476 1.1690796178801715 0 0 0
8 1 1 95.4929658551372 0.8969711899875511 1.1288934284179368 1.401095550914359 0 0 0
12 1 1 95.4929658551372 1.800220692825725 1.4273395353769478 0.8244943076252822 0 0 0
16 1 1 95.4929658551372 2.8647042839256307 1.4337789092578823 0.9575656084424586 0 0 0
20 1 1 95.4929658551372 3.983914783418174 1.4164822156120425 0.9687706757957834 0 0 0
24 1 1 95.4929658551372 5.0969649863072775 1.4013146999189485 0.9713826576791021 0 0 0
28 1 1 95.4929658551372 6.212165799529085 1.3653325537832912 0.9678719706792216 0 0 0
32 1 1 95.4929658551372 7.329536595868181 1.4022790050222873 1.0261957110577655 0 0 0
36 1 1 95.4929658551372 8.421403464428925 1.3111490716917664 0.7707997917390976 0 0 0
44 1 1 95.4929658551372 10.463454612732958 1.4162784237444246 0.954138009428335 0 0 0
40 1 1 95.4929658551372 9.441134654637219 1.4750939387238382 1.2756008358741815 0 0 0
86 1 1 95.4929658551372 0.10342777303660151 2.7042417764864632 0.9013561978314988 0 0 0
90 1 1 95.4929658551372 1.1234868451236872 2.2526966209829036 1.1881914133512659 0 0 0
94 1 1 95.4929658551372 2.12097975416289 2.5331726680860442 0.7959701831920458 0 0 0
98 1 1 95.4929658551372 3.2204073930846437 2.4869238315985913 1.0241897063520602 0 0 0
102 1 1 95.4929658551372 4.3378895439782985 2.4693498970064707 0.954616758375173 0 0 0
106 1 1 95.4929658551372 5.460340155737192 2.486865994846118 0.9678999659594868 0 0 0
110 1 1 95.4929658551372 6.564564539731082 2.449171442536071 0.973602211377019 0 0 0
114 1 1 95.4929658551372 7.720302728108057 2.4685777501918045 1.0086946507560026 0 0 0
118 1 1 95.4929658551372 8.827759127608008 2.3529244872101303 0.8268112379287408 0 0 0
122 1 1 95.4929658551372 9.809983538170851 2.5433482432543295 1.3740983097307984 0 0 0
126 1 1 95.4929658551372 10.928385995355702 2.4341509257635807 1.0417273148512693 0 0 0
92 1 1 95.4929658551372 0.9264110030286095 3.35132930006412 1.3547264196044402 0 0 0
100 1 1 95.4929658551372 2.977433408898481 3.5989144726300086 1.0133640586937946 0 0 0
104 1 1 95.4929658551372 4.127673828342831 3.5640125377239946 1.018974494266477 0 0 0
108 1 1 95.4929658551372 5.250642951977398 3.582767278244802 1.0477835178775492 0 0 0
112 1 1 95.4929658551372 6.414327624300389 3.5515223058040544 1.0147625370016073 0 0 0
116 1 1 95.4929658551372 7.53332262073123 3.5614385520666665 1.0031966439322908 0 0 0
120 1 1 95.4929658551372 8.63638835769523 3.4650875638022423 0.9994787037263783 0 0 0
128 1 1 95.4929658551372 10.680308632649869 3.4593346925883184 0.9327250110133203 0 0 0
96 1 1 95.4929658551372 1.8424154771525207 3.611671623989175 0.7954061738913133 0 0 0
124 1 1 95.4929658551372 9.691831027996583 3.6336499684510057 1.3658122733405331 0 0 0
170 1 1 95.4929658551372 0.3376260691535449 4.784705881952347 0.8836462997810794 0 0 0
174 1 1 95.4929658551372 1.3870497729710516 4.53381805320983 1.2641304067187429 0 0 0
178 1 1 95.4929658551372 2.417445100308052 4.611741769187595 0.7668315725026684 0 0 0
182 1 1 95.4929658551372 3.5359364615625766 4.554843180160314 0.8835709059230887 0 0 0
186 1 1 95.4929658551372 4.682272459736645 4.541319532207343 0.8816633266803211 0 0 0
190 1 1 95.4929658551372 5.800666528263531 4.55084549883041 0.8938688385466732 0 0 0
194 1 1 95.4929658551372 6.914503107473302 4.547209996865496 0.9091723504443345 0 0 0
198 1 1 95.4929658551372 8.050665714984232 4.552531446288331 0.8533917663573355 0 0 0
202 1 1 95.4929658551372 9.14718768501976 4.54535245971056 1.0422795459811003 0 0 0
206 1 1 95.4929658551372 10.239969884810925 4.625591117869993 1.3732261418618772 0 0 0
210 1 1 95.4929658551372 11.245673692563573 4.433499394564528 0.8141844994327462 0 0 0
176 1 1 95.4929658551372 1.0965533192903032 5.625132538187846 1.1920397725993281 0 0 0
180 1 1 95.4929658551372 2.1475574094226784 5.680569096453468 0.93193201910209 0 0 0
184 1 1 95.4929658551372 3.2360777270198584 5.641045391388124 0.9972356612512517 0 0 0
188 1 1 95.4929658551372 4.345408543983317 5.626258708512375 0.9799761119103261 0 0 0
192 1 1 95.4929658551372 5.496160565384931 5.633140087831779 0.9802099789098611 0 0 0
196 1 1 95.4929658551372 6.6684670520725735 5.649438272201258 0.9705299333448129 0 0 0
200 1 1 95.4929658551372 7.780486485519176 5.6428344491995075 0.9604288882654801 0 0 0
204 1 1 95.4929658551372 8.902603498028649 5.669885433342563 0.9540638573650689 0 0 0
208 1 1 95.4929658551372 10.135614117189318 5.703069818623239 1.1832914748698689 0 0 0
212 1 1 95.4929658551372 11.429131667938657 5.506262526580755 0.7496486312214365 0 0 0
254 1 1 95.4929658551372 0.09526630782468576 6.943584543315643 0.8488120305015228 0 0 0
258 1 1 95.4929658551372 1.2035202106312883 6.767605932272647 1.1548436083382345 0 0 0
262 1 1 95.4929658551372 2.2556236137334 6.796707279696714 0.7946400351843698 0 0 0
266 1 1 95.4929658551372 3.4466910902929655 6.755072736816143 0.8639392330142559 0 0 0
270 1 1 95.4929658551372 4.583350816842092 6.770852382538591 0.871149883646066 0 0 0
274 1 1 95.4929658551372 5.704227069337375 6.78657911511 0.8746127413728947 0 0 0
278 1 1 95.4929658551372 6.793411163058057 6.78717486906796 0.8593945381002623 0 0 0
282 1 1 95.4929658551372 7.923265044424892 6.759117637662097 0.8567246879861572 0 0 0
286 1 1 95.4929658551372 9.04590434783888 6.772437799578272 0.9437579876973947 0 0 0
290 1 1 95.4929658551372 10.2835812972222 6.815296479356115 1.2026015569574597 0 0 0
294 1 1 95.4929658551372 11.32578302367842 6.604075677468931 0.8151471633242936 0 0 0
260 1 1 95.4929658551372 1.2511035727321007 7.88522023199057 1.3278003723550416 0 0 0
264 1 1 95.4929658551372 2.290130089610681 7.909709841477994 0.830922413617698 0 0 0
268 1 1 95.4929658551372 3.4410940902836837 7.882377306315531 0.9055885037260231 0 0 0
272 1 1 95.4929658551372 4.549900016394505 7.910910924358019 0.9049815502484658 0 0 0
276 1 1 95.4929658551372 5.6577574344557275 7.893794144841464 0.9101858641892211 0 0 0
280 1 1 95.4929658551372 6.756837241403725 7.887872681458472 0.8979510575871742 0 0 0
284 1 1 95.4929658551372 7.867642244623624 7.870240226408232 0.9136114503641588 0 0 0
288 1 1 95.4929658551372 8.975281629135916 7.871303132447616 1.041768171978685 0 0 0
292 1 1 95.4929658551372 10.288899253679944 7.915497323559439 1.2595169638940593 0 0 0
296 1 1 95.4929658551372 11.315998568753562 7.745238636917659 0.8891050201409849 0 0 0
256 1 1 95.4929658551372 0.11734145924175539 8.071568229655172 0.8708615375627536 0 0 0
338 1 1 95.4929658551372 0.050977555384877186 9.173307867817671 0.9162154031076059 0 0 0
344 1 1 95.4929658551372 1.2745267055893204 9.013915914948795 1.2664549450390066 0 0 0
350 1 1 95.4929658551372 2.3631489010309488 9.035909642669656 0.8552943385171908 0 0 0
356 1 1 95.4929658551372 3.4921097348188233 9.02711535478658 0.9084346547696303 0 0 0
362 1 1 95.4929658551372 4.6034318887338355 9.026745519557076 0.8960639414261982 0 0 0
368 1 1 95.4929658551372 5.70472255534104 9.04050083200526 0.900698131218092 0 0 0
374 1 1 95.4929658551372 6.8163662687994195 9.03853856460611 0.8995631612801931 0 0 0
380 1 1 95.4929658551372 7.932104304987171 9.03090271757591 0.9186480861048428 0 0 0
386 1 1 95.4929658551372 9.033417615907712 9.016351844604866 0.9941880097000965 0 0 0
392 1 1 95.4929658551372 10.298800936611322 9.04196021038659 1.250198600502794 0 0 0
398 1 1 95.4929658551372 11.279570917565577 8.878095531963684 0.784020448526334 0 0 0
346 1 1 95.4929658551372 1.017634957381386 10.077859903874872 1.2084582945008546 0 0 0
352 1 1 95.4929658551372 2.0492300519330544 10.096216312235722 0.8391463013726926 0 0 0
358 1 1 95.4929658551372 3.165531232505089 10.089696409412406 0.9501023901530785 0 0 0
364 1 1 95.4929658551372 4.293132620043229 10.130971674179348 0.9201787011424657 0 0 0
376 1 1 95.4929658551372 6.537694213443683 10.133691419623634 0.9261783082827589 0 0 0
382 1 1 95.4929658551372 7.692539267616563 10.121281245211408 0.9349215791796579 0 0 0
388 1 1 95.4929658551372 8.824229495876207 10.10609718763363 0.9229955589842438 0 0 0
400 1 1 95.4929658551372 11.087421734545648 10.01126677428445 0.7531908492784055 0 0 0
340 1 1 95.4929658551372 0.0693329815164002 10.314155437975625 0.7380793302281214 0 0 0
370 1 1 95.4929658551372 5.4055258251493195 10.144688687653183 0.9302279744521561 0 0 0
394 1 1 95.4929658551372 10.05882970089129 10.12266396757846 1.1838703533015011 0 0 0
342 1 1 95.4929658551372 0.4063914735997931 11.39917065484062 0.7457820344125529 0 0 0
348 1 1 95.4929658551372 1.4162387236046095 11.153193965387656 1.2008358649737174 0 0 0
354 1 1 95.4929658551372 2.5180605902795157 11.174254210219067 0.7936398902461163 0 0 0
360 1 1 95.4929658551372 3.6257275714027313 11.13436206554596 0.9060002194707285 0 0 0
366 1 1 95.4929658551372 4.730417752036397 11.130712767269852 0.9008976850843231 0 0 0
372 1 1 95.4929658551372 5.812473536426458 11.17918473950222 0.8917881237292726 0 0 0
378 1 1 95.4929658551372 6.890661036158036 11.16299622602096 0.8811955504619235 0 0 0
384 1 1 95.4929658551372 7.973475285664221 11.1748445076882 0.9433982168237495 0 0 0
390 1 1 95.4929658551372 9.075837821834533 11.240917642374667 0.9619928612113876 0 0 0
396 1 1 95.4929658551372 10.380379306970985 11.1456979381171 1.4463280997098076 0 0 0
402 1 1 95.4929658551372 11.395968025672412 11.07313517363777 0.8651269774397482 0 0 0
4104 1 1 5.968310365946075 8.118844201025397 11.06121067733519 11.126601192659473 0 0 0
899 1 1 95.4929658551372 4.591562133758059 0.011252211034757858 1.9892757644246841 0 0 0
4095 1 1 5.968310365946075 6.944848555712762 11.06125990167065 11.100239926745544 0 0 0
911 1 1 95.4929658551372 7.917707122643552 0.016855904078579523 2.0222528207566572 0 0 0
38 1 1 95.4929658551372 9.875600172091557 0.37954506528115484 1.490415818984851 0 0 0
923 1 1 95.4929658551372 11.397604290193367 0.1515006930688743 2.1696919209772396 0 0 0
4131 1 1 5.968310365946075 11.078254536583296 11.252785122951625 11.14298969850859 0 0 0
893 1 1 95.4929658551372 1.917666983580172 1.1445443167770837 1.9198760249946056 0 0 0
897 1 1 95.4929658551372 3.0615033051967564 1.105665661137382 2.0628019820222234 0 0 0
901 1 1 95.4929658551372 4.236584813483821 1.0694039047565458 2.0363287118273057 0 0 0
905 1 1 95.4929658551372 5.37361209890829 1.0872716137627463 2.037647551441386 0 0 0
909 1 1 95.4929658551372 6.473697849495765 1.0995857423801556 2.040458095082438 0 0 0
913 1 1 95.4929658551372 7.614859456858648 1.1355845751574534 2.072058157847234 0 0 0
917 1 1 95.4929658551372 8.7215224056195 0.8911231115199807 2.0638907018158226 0 0 0
925 1 1 95.4929658551372 11.001230109376277 1.3607158875998837 1.9334272244981838 0 0 0
999 1 1 95.4929658551372 9.068963236888257 2.1013743315277864 2.0995444758647315 0 0 0
967 1 1 95.4929658551372 0.32601174738757405 2.3678158650926706 1.9787855122152702 0 0 0
975 1 1 95.4929658551372 2.370473639436564 2.237116447087115 1.8414640160473628 0 0 0
979 1 1 95.4929658551372 3.4961601550495023 2.2030556305682434 2.0581745467945383 0 0 0
983 1 1 95.4929658551372 4.612005742399917 2.22463559208694 1.9997294079972032 0 0 0
987 1 1 95.4929658551372 5.730561935775223 2.20681968257281 2.004258867570864 0 0 0
991 1 1 95.4929658551372 6.8567271885140775 2.1973465886549635 2.0111391299775354 0 0 0
995 1 1 95.4929658551372 7.990472922413125 2.230873506123367 2.051481604330455 0 0 0
1007 1 1 95.4929658551372 11.193312771108141 2.4488512191169534 2.136345873002746 0 0 0
969 1 1 95.4929658551372 0.2081215772389759 3.5576361386982436 2.1837603992368746 0 0 0
977 1 1 95.4929658551372 2.174121734196415 3.350073642862211 1.8268245428224397 0 0 0
981 1 1 95.4929658551372 3.2646818503943797 3.3018147298144744 2.0829997534562663 0 0 0
985 1 1 95.4929658551372 4.37084599989418 3.3193727222857063 2.0568521090707415 0 0 0
989 1 1 95.4929658551372 5.527467212092235 3.326986511419389 2.0668989401588633 0 0 0
993 1 1 95.4929658551372 6.646080174160033 3.30933377836512 2.052526294881367 0 0 0
997 1 1 95.4929658551372 7.76080225061048 3.3368661809927387 2.092465389381236 0 0 0
1001 1 1 95.4929658551372 8.885654003505365 3.2246761744122603 2.0444454377364125 0 0 0
1009 1 1 95.4929658551372 11.006980456582973 3.577099910123573 2.0295385097398277 0 0 0
1051 1 1 95.4929658551372 0.38932105616971613 4.673072456267474 1.9891406569196715 0 0 0
1059 1 1 95.4929658551372 2.3974081393553357 4.447531907124542 1.9501899493347037 0 0 0
1063 1 1 95.4929658551372 3.519080396986723 4.418256903389989 2.0419738439273933 0 0 0
1067 1 1 95.4929658551372 4.641055532271125 4.426492796164997 1.9779860312278652 0 0 0
1071 1 1 95.4929658551372 5.773432307884462 4.414265409780634 1.9915224987103353 0 0 0
1075 1 1 95.4929658551372 6.893235504655124 4.410751991693341 2.0036538737232545 0 0 0
1079 1 1 95.4929658551372 8.02716662766401 4.434955080207517 2.00802839138142 0 0 0
1083 1 1 95.4929658551372 9.15338964914982 4.328454674957529 2.124855271183187 0 0 0
1091 1 1 95.4929658551372 11.179086090760684 4.666591750959619 1.963238216357553 0 0 0
1061 1 1 95.4929658551372 2.266839931527594 5.61681696550713 2.0319624219501122 0 0 0
1065 1 1 95.4929658551372 3.3750855855324935 5.563953563185784 2.0760128571923673 0 0 0
1069 1 1 95.4929658551372 4.511363815900186 5.56069669568104 2.0715623644887224 0 0 0
1073 1 1 95.4929658551372 5.688606182602287 5.580599315864115 2.063973753633649 0 0 0
1077 1 1 95.4929658551372 6.85296520125511 5.521631364736885 2.0606346254737655 0 0 0
1081 1 1 95.4929658551372 8.004551975151452 5.556473657525247 2.064946442248353 0 0 0
1085 1 1 95.4929658551372 9.10632892162438 5.5076329953276435 2.05570981118348 0 0 0
1093 1 1 95.4929658551372 11.185996099684976 5.776501458172551 1.8637560501588846 0 0 0
1053 1 1 95.4929658551372 0.231489845740736 5.763511966765261 1.861496884608781 0 0 0
1135 1 1 95.4929658551372 0.3253849253687583 6.926863609864463 1.9663041600475066 0 0 0
1143 1 1 95.4929658551372 2.3185959820974027 6.7112251937544 1.952641786153542 0 0 0
1147 1 1 95.4929658551372 3.448188725309483 6.672682190079763 2.0316458362868426 0 0 0
1151 1 1 95.4929658551372 4.60601312083452 6.662266026536233 2.0148021938126948 0 0 0
1155 1 1 95.4929658551372 5.757736536966374 6.691016548619729 2.008732286025443 0 0 0
1159 1 1 95.4929658551372 6.861923703619747 6.6555556469548725 2.0207085467966825 0 0 0
1163 1 1 95.4929658551372 8.020381154983836 6.6750006854396435 2.029070043244796 0 0 0
1167 1 1 95.4929658551372 9.157288338135796 6.611890629080165 2.0619529005067307 0 0 0
1175 1 1 95.4929658551372 11.302463776428517 6.907131064124745 1.9290626061977998 0 0 0
1145 1 1 95.4929658551372 2.317969162378835 7.808473884039892 1.9731733936872258 0 0 0
1149 1 1 95.4929658551372 3.4372365507826586 7.789744519438027 2.0651755656730515 0 0 0
1153 1 1 95.4929658551372 4.58335547904849 7.800530086098413 2.0574435049263995 0 0 0
1157 1 1 95.4929658551372 5.740446614802936 7.816633942800796 2.057255807483345 0 0 0
1161 1 1 95.4929658551372 6.848039890893955 7.770549374066579 2.058432189059293 0 0 0
1165 1 1 95.4929658551372 8.009642502627166 7.788999185395447 2.0502771522437513 0 0 0
1169 1 1 95.4929658551372 9.113911387487352 7.771491756676608 2.1315428831134713 0 0 0
1137 1 1 95.4929658551372 0.3697172746377075 8.024210893843911 1.95785278710853 0 0 0
1177 1 1 95.4929658551372 11.208987947593803 8.016604888796254 1.9460226963030376 0 0 0
1219 1 1 95.4929658551372 0.44761339669608596 9.143366939360657 1.9546972486681755 0 0 0
1231 1 1 95.4929658551372 2.4152690489302677 8.981748501605303 1.9665285713531344 0 0 0
1237 1 1 95.4929658551372 3.549183680780312 8.943073474170951 2.0441419935922007 0 0 0
1243 1 1 95.4929658551372 4.661734152066206 8.942222453452239 2.027095476680109 0 0 0
1249 1 1 95.4929658551372 5.81379642493487 8.957774769462738 2.0283493481277257 0 0 0
1255 1 1 95.4929658551372 6.9254102006722436 8.953042485635079 2.0387812694131533 0 0 0
1261 1 1 95.4929658551372 8.082457289719345 8.991815648218902 2.03715164300232 0 0 0
1267 1 1 95.4929658551372 9.18991685148927 8.947948389079533 2.0760436697170626 0 0 0
1279 1 1 95.4929658551372 11.288382603076835 9.118020443984046 1.8843094402146014 0 0 0
1233 1 1 95.4929658551372 2.082390723861821 10.037623614866563 1.9586650903656229 0 0 0
1239 1 1 95.4929658551372 3.1911534044124945 10.04423547733724 2.1025645114789264 0 0 0
1245 1 1 95.4929658551372 4.300590853669449 10.06232746529985 2.101164841792835 0 0 0
1251 1 1 95.4929658551372 5.432382679150338 10.020673318475154 2.0858893035108075 0 0 0
1257 1 1 95.4929658551372 6.550928578948675 10.00396949753855 2.081281735921392 0 0 0
1263 1 1 95.4929658551372 7.654733679690607 10.06140022243461 2.064680289908428 0 0 0
1269 1 1 95.4929658551372 8.810273713262061 9.993569701408553 2.049632597880429 0 0 0
1221 1 1 95.4929658551372 0.17945658566551756 10.235896071964625 1.9420879580298915 0 0 0
1281 1 1 95.4929658551372 10.924590201689092 10.18334744424115 1.83571835388671 0 0 0
1223 1 1 95.4929658551372 0.5867401233127727 11.34901964673298 1.8952007159758741 0 0 0
1235 1 1 95.4929658551372 2.624321532330883 11.06552126326572 1.8763663333539988 0 0 0
1241 1 1 95.4929658551372 3.767394088611376 11.02927299431878 1.9907972641130005 0 0 0
1247 1 1 95.4929658551372 4.902133401277937 11.053263760314515 1.9869227437012025 0 0 0
1253 1 1 95.4929658551372 6.014473424923442 11.069058559837341 2.0116535273354446 0 0 0
1259 1 1 95.4929658551372 7.123618724793174 11.058299925649749 1.9640405565567138 0 0 0
1265 1 1 95.4929658551372 8.294848015534031 11.046995061893538 2.0166114289410255 0 0 0
1271 1 1 95.4929658551372 9.397949250870067 10.995857711391741 1.9805415648424196 0 0 0
1283 1 1 95.4929658551372 11.362935764126807 11.230712776558237 1.9983488286337583 0 0 0
919 1 1 95.4929658551372 10.295282432158636 0.0480602059224621 2.481250698909153 0 0 0
889 1 1 95.4929658551372 1.0112821626320387 1.045840628713798 2.512063736254039 0 0 0
921 1 1 95.4929658551372 9.953457092144234 1.102201994043244 2.318917307220983 0 0 0
971 1 1 95.4929658551372 1.3105623532734 2.090722469824404 2.4000485902737614 0 0 0
1003 1 1 95.4929658551372 10.143835245537467 2.1660461449511574 2.5302076267714986 0 0 0
973 1 1 95.4929658551372 1.266301509036168 3.2026474450677647 2.5173730360090367 0 0 0
1005 1 1 95.4929658551372 9.945108092288235 3.2242687194428545 2.354645409409778 0 0 0
1055 1 1 95.4929658551372 1.3264682592165131 4.298159399801298 2.3727264814295705 0 0 0
1087 1 1 95.4929658551372 10.189657576194744 4.417555936948393 2.5301848288177577 0 0 0
1057 1 1 95.4929658551372 1.2208239301407018 5.437168799063561 2.375265173944398 0 0 0
1089 1 1 95.4929658551372 10.16761725508542 5.6082217738708735 2.322454413805417 0 0 0
1139 1 1 95.4929658551372 1.3227894372142845 6.592417410710974 2.415308866474877 0 0 0
1171 1 1 95.4929658551372 10.20260391268028 6.713222038653585 2.3669583634804616 0 0 0
1141 1 1 95.4929658551372 1.2875490645270948 7.701135113043077 2.425979484912551 0 0 0
1173 1 1 95.4929658551372 10.20029829750331 7.89330085788744 2.3721759107852334 0 0 0
1225 1 1 95.4929658551372 1.382408555057857 8.783905851965308 2.439493664112017 0 0 0
1273 1 1 95.4929658551372 10.263378410462632 9.013555560770978 2.3771941960145138 0 0 0
1227 1 1 95.4929658551372 1.0467475275984142 9.861462994164285 2.4951756878210327 0 0 0
1275 1 1 95.4929658551372 9.85599765970045 10.072599409346878 2.340872260920828 0 0 0
1229 1 1 95.4929658551372 1.5660170732473984 11.023335018940005 2.3101486995369798 0 0 0
1277 1 1 95.4929658551372 10.372405534242843 11.172648634324288 2.5684314357021574 0 0 0
884 1 1 95.4929658551372 0.5349273277103381 0.25575678587409006 3.0815728039032244 0 0 0
888 1 1 95.4929658551372 1.610457988888033 0.11345777422411167 3.404256528791034 0 0 0
892 1 1 95.4929658551372 2.676477412297527 0.15131779177529497 2.901761894557427 0 0 0
896 1 1 95.4929658551372 3.8017916885914316 0.13569817576438997 3.0674805409808603 0 0 0
900 1 1 95.4929658551372 4.918571415645324 0.12263794942008999 3.0438497569506993 0 0 0
904 1 1 95.4929658551372 6.029192099008692 0.14209645476987393 3.04731424848434 0 0 0
908 1 1 95.4929658551372 7.142693366869822 0.1305813820233164 3.0665211930960568 0 0 0
912 1 1 95.4929658551372 8.235808721810487 0.1654327460566413 3.0950710205005514 0 0 0
916 1 1 95.4929658551372 9.331329348973586 0.07907397334207356 3.10052257117834 0 0 0
894 1 1 95.4929658551372 2.015561510889082 1.129653628119182 3.0586046690693154 0 0 0
898 1 1 95.4929658551372 3.13263702655796 1.1165964948191045 3.1900575101009094 0 0 0
902 1 1 95.4929658551372 4.30734077003304 1.1094866955790585 3.158012539008742 0 0 0
906 1 1 95.4929658551372 5.444178086332617 1.124061895669044 3.180370256553753 0 0 0
910 1 1 95.4929658551372 6.565536454371997 1.128042957526417 3.193524002214226 0 0 0
914 1 1 95.4929658551372 7.686429922931486 1.1636398217020067 3.1940741675228246 0 0 0
918 1 1 95.4929658551372 8.839723175670526 1.0935567279385245 3.1918331320500553 0 0 0
922 1 1 95.4929658551372 9.959948800855992 1.1931314345990935 3.4398849277893158 0 0 0
926 1 1 95.4929658551372 11.076963841333296 1.0166000320057085 3.0416620375646493 0 0 0
886 1 1 95.4929658551372 0.14727025706053404 1.5055589711869077 3.1236650021728827 0 0 0
968 1 1 95.4929658551372 0.3912980621096105 2.58012384003889 3.054549270386714 0 0 0
972 1 1 95.4929658551372 1.3505172736395394 2.193622969517435 3.5386930910833225 0 0 0
976 1 1 95.4929658551372 2.4124542943620253 2.1955369633384207 3.028826247599965 0 0 0
980 1 1 95.4929658551372 3.5380644404092774 2.195266538314829 3.1742382557761997 0 0 0
984 1 1 95.4929658551372 4.698178588472963 2.2023053055786233 3.1831845791185467 0 0 0
988 1 1 95.4929658551372 5.8369416705813935 2.211867019598636 3.186912513499689 0 0 0
992 1 1 95.4929658551372 6.946241325383112 2.206318855046592 3.1692794164449785 0 0 0
996 1 1 95.4929658551372 8.079925037852409 2.22365391708723 3.1634979393677503 0 0 0
1000 1 1 95.4929658551372 9.227947750050582 2.1739750371863718 3.1668398852914628 0 0 0
1004 1 1 95.4929658551372 10.197783600336033 2.2515398282790415 3.635006132752146 0 0 0
1008 1 1 95.4929658551372 11.231606442130373 2.184495364933 3.2230100364082266 0 0 0
970 1 1 95.4929658551372 0.06670770431881162 3.5968846033364947 3.274292019163998 0 0 0
974 1 1 95.4929658551372 1.0644665241774403 3.2492550409402012 3.623780984119805 0 0 0
978 1 1 95.4929658551372 2.213349230005209 3.3158356912816243 3.1110791378282947 0 0 0
982 1 1 95.4929658551372 3.3176358442258995 3.3270789687618074 3.2263268084173062 0 0 0
986 1 1 95.4929658551372 4.462604526100667 3.3211109081911916 3.178140391332163 0 0 0
990 1 1 95.4929658551372 5.618682160756172 3.316433905823191 3.1886459567604923 0 0 0
994 1 1 95.4929658551372 6.789895266337039 3.3232818927143244 3.1784177170762895 0 0 0
998 1 1 95.4929658551372 7.944672975172115 3.3455902011951317 3.201648964841604 0 0 0
1002 1 1 95.4929658551372 9.114758972362818 3.286570813352376 3.1230442993308323 0 0 0
1006 1 1 95.4929658551372 10.185627415381548 3.360998065733877 3.4382291415174393 0 0 0
1010 1 1 95.4929658551372 11.220621763694508 3.3608988067161625 3.084780083662385 0 0 0
1056 1 1 95.4929658551372 0.9835428484117256 4.392716404419373 3.4545007505373957 0 0 0
1060 1 1 95.4929658551372 2.143710486487142 4.474487879414696 3.11583347107347 0 0 0
1064 1 1 95.4929658551372 3.258162727404334 4.464316245355995 3.1272164166586256 0 0 0
1068 1 1 95.4929658551372 4.378711995671885 4.456409869721986 3.122138937222752 0 0 0
1072 1 1 95.4929658551372 5.516753103879496 4.447813108534069 3.116314985053416 0 0 0
1076 1 1 95.4929658551372 6.649813170563963 4.450989649201623 3.1328794471289254 0 0 0
1080 1 1 95.4929658551372 7.769864008771808 4.457629845655058 3.1539729452360494 0 0 0
1084 1 1 95.4929658551372 8.877650803188562 4.456048323146075 3.2111867436986907 0 0 0
1088 1 1 95.4929658551372 9.955721890035235 4.450704404326709 3.6364609526043523 0 0 0
1092 1 1 95.4929658551372 11.032793225914938 4.540305696498771 3.22327956069467 0 0 0
1058 1 1 95.4929658551372 1.0390088479561308 5.495592803397245 3.4874624008658612 0 0 0
1062 1 1 95.4929658551372 2.1497149462404024 5.576795196338761 3.1824946611463707 0 0 0
1066 1 1 95.4929658551372 3.3055678731655487 5.586996012710054 3.220915091530031 0 0 0
1070 1 1 95.4929658551372 4.427066865597958 5.580856487998787 3.2200859179026686 0 0 0
1074 1 1 95.4929658551372 5.575696719263817 5.548657673453662 3.226274267279357 0 0 0
1078 1 1 95.4929658551372 6.740229885162418 5.560360813537391 3.2298726103561353 0 0 0
1082 1 1 95.4929658551372 7.858587976630628 5.567127676232642 3.2470083454932697 0 0 0
1086 1 1 95.4929658551372 9.00587845610337 5.558530071430533 3.188400153824211 0 0 0
1090 1 1 95.4929658551372 10.080542199050287 5.590437581055827 3.567029170455218 0 0 0
1094 1 1 95.4929658551372 11.099851444131906 5.686479562743753 2.986667547206277 0 0 0
1054 1 1 95.4929658551372 0.08542477542019775 5.823762946851137 2.9502615926208717 0 0 0
4113 1 1 5.968310365946075 9.239869252257671 10.957074196442527 10.953649040069793 0 0 0
1140 1 1 95.4929658551372 1.0607112243455683 6.688875784915308 3.495405026247598 0 0 0
1144 1 1 95.4929658551372 2.1665219708445265 6.695106850578511 3.137709613267392 0 0 0
1148 1 1 95.4929658551372 3.2677720404774453 6.671905402289945 3.1786682670674655 0 0 0
1152 1 1 95.4929658551372 4.414246543045051 6.66418878097134 3.1722791991100125 0 0 0
1156 1 1 95.4929658551372 5.590598001967879 6.657505008350951 3.1711575144245128 0 0 0
1160 1 1 95.4929658551372 6.707290091392297 6.67788740894966 3.1741604519562943 0 0 0
1164 1 1 95.4929658551372 7.811457730489762 6.68670023405041 3.1989332564895165 0 0 0
1168 1 1 95.4929658551372 8.956289155106871 6.674821737600415 3.1862790580956895 0 0 0
1172 1 1 95.4929658551372 10.014360238768518 6.752664244058851 3.5397222361741703 0 0 0
1176 1 1 95.4929658551372 11.0583640359297 6.783090882574367 3.034178164221177 0 0 0