LAMMPS data file via write_data, version 10 Dec 2025, timestep = 100000, units = lj

9261 atoms
1 atom types
9261 ellipsoids

0 23.113490742262385 xlo xhi
0 23.113490742262385 ylo yhi
0 23.113490742262385 zlo zhi

Atoms # ellipsoid/kk

7 1 1 95.4929658551372 0.7593582490813343 0.7556184254962613 0.3529260092831861 0 0 0
19 1 1 95.4929658551372 4.023391770970849 0.8152667259116111 0.011311078890144583 0 0 0
23 1 1 95.4929658551372 5.140214506396132 0.801749876558927 0.014319103874272066 0 0 0
27 1 1 95.4929658551372 6.255407647892152 0.7547909143835142 0.024345936515033008 0 0 0
31 1 1 30.31522725559912 7.4157617706814625 0.8173591317782191 0.055312576114968495 0 0 0
39 1 1 95.4929658551372 9.60404991818722 0.9678734510530668 0.3140609760584668 0 0 0
89 1 1 95.4929658551372 1.0741370418808327 1.8531724047019145 0.13858763293878007 0 0 0
97 1 1 15.91549430918954 3.27732643459425 1.8135126891168998 0.0029111850475340676 0 0 0
105 1 1 5.968310365946075 5.531234927533349 1.837748852238026 0.040517290041154175 0 0 0
109 1 1 5.968310365946075 6.648378759660058 1.8316086650836887 0.04785128487475387 0 0 0
121 1 1 95.4929658551372 9.88558872137155 2.18667661965022 0.1983187669135279 0 0 0
91 1 1 95.4929658551372 0.9591443891867883 2.964393370804327 0.25283462755994746 0 0 0
99 1 1 95.4929658551372 3.1565553912090096 2.9734437611771694 0.016455516970034317 0 0 0
115 1 1 95.4929658551372 7.60699066829255 2.985649969358802 0.02017435844359025 0 0 0
123 1 1 95.4929658551372 9.73060600816659 3.291989913251604 0.30901143713908746 0 0 0
173 1 1 5.968310365946075 0.9115073837926663 4.113629692593855 0.19891226969628584 0 0 0
181 1 1 15.91549430918954 3.0336581346802802 4.059419205745662 0.018311367589835828 0 0 0
185 1 1 5.968310365946075 4.12892077150274 4.083299446086781 0.04438480117499591 0 0 0
189 1 1 95.4929658551372 5.218044515632177 4.063802040391834 0.023504233796961038 0 0 0
4086 1 1 5.968310365946075 5.820239414975042 11.09487605422213 11.059013460460921 0 0 0
197 1 1 95.4929658551372 7.453594263683663 4.0707054547334405 0.004111907953869928 0 0 0
205 1 1 95.4929658551372 9.659740259225629 4.382997595821469 0.034712661853304475 0 0 0
211 1 1 15.91549430918954 10.612966927042173 4.954737468968979 0.02542248934829882 0 0 0
207 1 1 95.4929658551372 9.628828242973071 5.494266537630063 0.10387846681889958 0 0 0
172 1 1 95.4929658551372 0.05899543126049153 5.863755471029047 0.7705735723457119 0 0 0
293 1 1 79.57747154594766 10.597729523775632 6.0632897742647485 0.06324514408871659 0 0 0
289 1 1 95.4929658551372 9.593516635152927 6.590753788955926 0.016581126553172728 0 0 0
295 1 1 95.4929658551372 10.560917771238872 7.170051416736946 0.22279448110639574 0 0 0
259 1 1 95.4929658551372 0.7884213923739372 7.413518892700671 0.10897953532837652 0 0 0
291 1 1 95.4929658551372 9.610992430065647 7.696606213744699 0.10966637058841631 0 0 0
343 1 1 95.4929658551372 0.7971714650090681 8.570674051754974 0.09418813066177896 0 0 0
391 1 1 95.4929658551372 9.654106937113092 8.823467751986673 0.06646268645242269 0 0 0
345 1 1 95.4929658551372 0.554523175073418 9.632407109980248 0.04089183204014423 0 0 0
393 1 1 95.4929658551372 9.66163581003572 9.935156428820196 0.19055936964481743 0 0 0
347 1 1 95.4929658551372 1.1683272815568928 10.646213767472773 0.050273242225927335 0 0 0
395 1 1 95.4929658551372 10.005704302274257 11.19320231247596 0.29713481823826926 0 0 0
6 1 1 95.4929658551372 0.9002105727640762 0.024567135141642545 1.2315163959414737 0 0 0
10 1 1 95.4929658551372 1.9331068076682916 0.3575365386181146 0.8598963538607224 0 0 0
14 1 1 95.4929658551372 3.2245947614882944 0.2987228319403561 0.937309857126351 0 0 0
18 1 1 95.4929658551372 4.356855651711522 0.29231498500632724 0.9632913518701621 0 0 0
22 1 1 95.4929658551372 5.513677551263734 0.29471627267880246 0.9632451269317501 0 0 0
26 1 1 95.4929658551372 6.687852788030554 0.3249096241681523 0.9738116368472542 0 0 0
30 1 1 95.4929658551372 7.815202435935977 0.3443860427292025 0.9795925179547751 0 0 0
34 1 1 95.4929658551372 8.971335248992629 0.3141201382951883 0.8588541393442352 0 0 0
42 1 1 95.4929658551372 10.903187762073248 0.3498860685082838 1.169079617880156 0 0 0
8 1 1 95.4929658551372 0.896971189987537 1.1288934284179724 1.4010955509143603 0 0 0
12 1 1 95.4929658551372 1.800220692825764 1.4273395353769396 0.824494307625325 0 0 0
16 1 1 95.4929658551372 2.864704283925673 1.4337789092578817 0.9575656084424116 0 0 0
20 1 1 95.4929658551372 3.983914783418188 1.4164822156120984 0.9687706757958168 0 0 0
24 1 1 95.4929658551372 5.09696498630733 1.4013146999189556 0.9713826576790965 0 0 0
28 1 1 95.4929658551372 6.212165799529116 1.3653325537832968 0.9678719706792109 0 0 0
32 1 1 95.4929658551372 7.329536595868196 1.402279005022335 1.026195711057807 0 0 0
36 1 1 95.4929658551372 8.42140346442891 1.311149071691753 0.7707997917390806 0 0 0
44 1 1 95.4929658551372 10.463454612732946 1.4162784237444515 0.954138009428322 0 0 0
40 1 1 95.4929658551372 9.441134654637175 1.4750939387238386 1.2756008358741793 0 0 0
86 1 1 95.4929658551372 0.10342777303656178 2.7042417764865 0.9013561978315188 0 0 0
90 1 1 95.4929658551372 1.1234868451236877 2.2526966209828885 1.1881914133512448 0 0 0
94 1 1 95.4929658551372 2.120979754162859 2.533172668086051 0.7959701831920559 0 0 0
98 1 1 95.4929658551372 3.2204073930846016 2.4869238315985975 1.024189706352079 0 0 0
102 1 1 95.4929658551372 4.3378895439782985 2.4693498970064907 0.9546167583751984 0 0 0
106 1 1 95.4929658551372 5.460340155737184 2.486865994846132 0.9678999659595283 0 0 0
110 1 1 95.4929658551372 6.564564539731065 2.4491714425360187 0.9736022113770267 0 0 0
114 1 1 95.4929658551372 7.720302728108079 2.4685777501917956 1.0086946507560113 0 0 0
118 1 1 95.4929658551372 8.827759127607955 2.3529244872101396 0.8268112379287023 0 0 0
122 1 1 95.4929658551372 9.809983538170828 2.5433482432543535 1.3740983097307986 0 0 0
126 1 1 95.4929658551372 10.928385995355722 2.434150925763604 1.0417273148513002 0 0 0
92 1 1 95.4929658551372 0.9264110030286079 3.3513293000641577 1.354726419604386 0 0 0
100 1 1 95.4929658551372 2.9774334088984724 3.598914472630001 1.0133640586938146 0 0 0
104 1 1 95.4929658551372 4.127673828342821 3.5640125377239698 1.0189744942664518 0 0 0
108 1 1 95.4929658551372 5.250642951977406 3.58276727824483 1.0477835178775714 0 0 0
112 1 1 95.4929658551372 6.414327624300393 3.5515223058040513 1.0147625370015902 0 0 0
116 1 1 95.4929658551372 7.533322620731245 3.561438552066663 1.0031966439322948 0 0 0
120 1 1 95.4929658551372 8.636388357695246 3.465087563802256 0.9994787037263864 0 0 0
128 1 1 95.4929658551372 10.68030863264986 3.4593346925883175 0.9327250110133313 0 0 0
96 1 1 95.4929658551372 1.842415477152524 3.6116716239892117 0.7954061738912745 0 0 0
124 1 1 95.4929658551372 9.691831027996573 3.633649968451012 1.3658122733405456 0 0 0
170 1 1 95.4929658551372 0.337626069153567 4.784705881952325 0.8836462997811146 0 0 0
174 1 1 95.4929658551372 1.387049772971042 4.533818053209857 1.2641304067187156 0 0 0
178 1 1 95.4929658551372 2.4174451003080724 4.6117417691875975 0.7668315725026487 0 0 0
182 1 1 95.4929658551372 3.5359364615625712 4.5548431801603 0.8835709059230697 0 0 0
186 1 1 95.4929658551372 4.682272459736629 4.541319532207332 0.8816633266803027 0 0 0
190 1 1 95.4929658551372 5.800666528263553 4.55084549883041 0.8938688385467064 0 0 0
194 1 1 95.4929658551372 6.91450310747333 4.547209996865508 0.9091723504443187 0 0 0
198 1 1 95.4929658551372 8.050665714984248 4.552531446288313 0.853391766357332 0 0 0
202 1 1 95.4929658551372 9.147187685019793 4.545352459710575 1.042279545981091 0 0 0
206 1 1 95.4929658551372 10.239969884810902 4.625591117869985 1.373226141861854 0 0 0
210 1 1 95.4929658551372 11.245673692563553 4.433499394564532 0.8141844994327456 0 0 0
176 1 1 95.4929658551372 1.0965533192903456 5.625132538187809 1.1920397725993401 0 0 0
180 1 1 95.4929658551372 2.1475574094226992 5.680569096453489 0.9319320191020474 0 0 0
184 1 1 95.4929658551372 3.236077727019854 5.641045391388131 0.9972356612512197 0 0 0
188 1 1 95.4929658551372 4.345408543983318 5.626258708512395 0.9799761119103358 0 0 0
192 1 1 95.4929658551372 5.496160565384884 5.633140087831796 0.9802099789097974 0 0 0
196 1 1 95.4929658551372 6.668467052072561 5.649438272201261 0.970529933344825 0 0 0
200 1 1 95.4929658551372 7.7804864855191695 5.642834449199478 0.9604288882655458 0 0 0
204 1 1 95.4929658551372 8.902603498028633 5.669885433342577 0.9540638573650728 0 0 0
208 1 1 95.4929658551372 10.13561411718931 5.70306981862325 1.1832914748698673 0 0 0
212 1 1 95.4929658551372 11.429131667938664 5.5062625265807235 0.7496486312214751 0 0 0
254 1 1 95.4929658551372 0.09526630782446179 6.943584543315654 0.848812030501469 0 0 0
258 1 1 95.4929658551372 1.2035202106312757 6.7676059322726 1.1548436083381923 0 0 0
262 1 1 95.4929658551372 2.2556236137334547 6.796707279696709 0.7946400351844062 0 0 0
266 1 1 95.4929658551372 3.446691090292972 6.755072736816165 0.8639392330142527 0 0 0
270 1 1 95.4929658551372 4.583350816842091 6.770852382538607 0.8711498836460664 0 0 0
274 1 1 95.4929658551372 5.70422706933737 6.786579115109988 0.8746127413729702 0 0 0
278 1 1 95.4929658551372 6.793411163058039 6.787174869067937 0.8593945381002532 0 0 0
282 1 1 95.4929658551372 7.923265044424879 6.759117637662077 0.856724687986173 0 0 0
286 1 1 95.4929658551372 9.04590434783891 6.772437799578282 0.9437579876973834 0 0 0
290 1 1 95.4929658551372 10.283581297222185 6.815296479356139 1.2026015569574784 0 0 0
294 1 1 95.4929658551372 11.325783023678477 6.604075677468884 0.8151471633242697 0 0 0
260 1 1 95.4929658551372 1.2511035727320998 7.885220231990525 1.327800372355077 0 0 0
264 1 1 95.4929658551372 2.2901300896106185 7.909709841477993 0.8309224136176477 0 0 0
268 1 1 95.4929658551372 3.4410940902836624 7.882377306315509 0.9055885037260064 0 0 0
272 1 1 95.4929658551372 4.54990001639448 7.910910924358036 0.9049815502484774 0 0 0
276 1 1 95.4929658551372 5.657757434455713 7.893794144841444 0.9101858641891651 0 0 0
280 1 1 95.4929658551372 6.756837241403698 7.88787268145845 0.8979510575872112 0 0 0
284 1 1 95.4929658551372 7.8676422446236245 7.870240226408239 0.9136114503639351 0 0 0
288 1 1 95.4929658551372 8.975281629135885 7.8713031324476175 1.041768171978683 0 0 0
292 1 1 95.4929658551372 10.288899253679956 7.9154973235594595 1.259516963894068 0 0 0
296 1 1 95.4929658551372 11.315998568753558 7.745238636917662 0.8891050201409987 0 0 0
256 1 1 95.4929658551372 0.11734145924185609 8.071568229655194 0.8708615375628831 0 0 0
338 1 1 95.4929658551372 0.05097755538492453 9.173307867817602 0.9162154031075458 0 0 0
344 1 1 95.4929658551372 1.2745267055892684 9.013915914948749 1.2664549450389124 0 0 0
350 1 1 95.4929658551372 2.363148901030974 9.03590964266964 0.8552943385171761 0 0 0
356 1 1 95.4929658551372 3.492109734818808 9.027115354786558 0.9084346547695693 0 0 0
362 1 1 95.4929658551372 4.603431888733838 9.026745519557107 0.8960639414261772 0 0 0
368 1 1 95.4929658551372 5.704722555341052 9.040500832005263 0.9006981312181012 0 0 0
374 1 1 95.4929658551372 6.8163662687994435 9.038538564606117 0.89956316128018 0 0 0
380 1 1 95.4929658551372 7.9321043049872015 9.030902717575952 0.9186480861050879 0 0 0
386 1 1 95.4929658551372 9.033417615907709 9.016351844604879 0.9941880097001236 0 0 0
392 1 1 95.4929658551372 10.298800936611332 9.041960210386614 1.2501986005028327 0 0 0
398 1 1 95.4929658551372 11.27957091756555 8.878095531963691 0.7840204485263216 0 0 0
346 1 1 95.4929658551372 1.0176349573813817 10.077859903874877 1.2084582945008056 0 0 0
352 1 1 95.4929658551372 2.049230051933049 10.096216312235672 0.8391463013726678 0 0 0
358 1 1 95.4929658551372 3.165531232505087 10.089696409412408 0.95010239015306 0 0 0
364 1 1 95.4929658551372 4.293132620043233 10.130971674179326 0.9201787011424455 0 0 0
376 1 1 95.4929658551372 6.537694213443683 10.133691419623624 0.9261783082827371 0 0 0
382 1 1 95.4929658551372 7.692539267616566 10.121281245211456 0.9349215791797038 0 0 0
388 1 1 95.4929658551372 8.824229495876182 10.106097187633624 0.9229955589842639 0 0 0
400 1 1 95.4929658551372 11.087421734545615 10.011266774284474 0.7531908492783781 0 0 0
340 1 1 95.4929658551372 0.06933298151637349 10.314155437975622 0.7380793302281187 0 0 0
370 1 1 95.4929658551372 5.4055258251492875 10.144688687653176 0.9302279744521299 0 0 0
394 1 1 95.4929658551372 10.058829700891266 10.122663967578452 1.1838703533014694 0 0 0
342 1 1 95.4929658551372 0.40639147359985817 11.399170654840592 0.7457820344125675 0 0 0
348 1 1 95.4929658551372 1.4162387236045928 11.153193965387691 1.2008358649737043 0 0 0
354 1 1 95.4929658551372 2.5180605902794917 11.174254210219042 0.7936398902461151 0 0 0
360 1 1 95.4929658551372 3.625727571402749 11.134362065545966 0.9060002194707584 0 0 0
366 1 1 95.4929658551372 4.73041775203641 11.130712767269838 0.9008976850843179 0 0 0
372 1 1 95.4929658551372 5.81247353642646 11.179184739502237 0.8917881237292848 0 0 0
378 1 1 95.4929658551372 6.890661036158035 11.16299622602095 0.881195550462075 0 0 0
384 1 1 95.4929658551372 7.9734752856642235 11.174844507688237 0.9433982168236614 0 0 0
390 1 1 95.4929658551372 9.075837821834542 11.240917642374665 0.9619928612113995 0 0 0
396 1 1 95.4929658551372 10.380379306970939 11.145697938117108 1.4463280997098016 0 0 0
402 1 1 95.4929658551372 11.395968025672396 11.073135173637816 0.8651269774397087 0 0 0
4104 1 1 5.968310365946075 8.118844201025441 11.061210677335199 11.126601192659484 0 0 0
899 1 1 95.4929658551372 4.5915621337580514 0.011252211034754999 1.989275764424667 0 0 0
4095 1 1 5.968310365946075 6.944848555712723 11.061259901670596 11.100239926745523 0 0 0
911 1 1 95.4929658551372 7.917707122643553 0.01685590407858561 2.0222528207566213 0 0 0
38 1 1 95.4929658551372 9.875600172091543 0.37954506528117754 1.4904158189848224 0 0 0
923 1 1 95.4929658551372 11.397604290193355 0.15150069306866865 2.1696919209772005 0 0 0
4131 1 1 5.968310365946075 11.07825453658332 11.252785122951616 11.142989698508623 0 0 0
893 1 1 95.4929658551372 1.9176669835799975 1.1445443167770724 1.9198760249942024 0 0 0
897 1 1 95.4929658551372 3.0615033051967293 1.1056656611373863 2.0628019820222443 0 0 0
901 1 1 95.4929658551372 4.2365848134837885 1.069403904756545 2.036328711827186 0 0 0
905 1 1 95.4929658551372 5.37361209890829 1.0872716137627363 2.037647551441404 0 0 0
909 1 1 95.4929658551372 6.47369784949576 1.0995857423801743 2.0404580950824207 0 0 0
913 1 1 95.4929658551372 7.614859456858632 1.1355845751574687 2.072058157847266 0 0 0
917 1 1 95.4929658551372 8.721522405619464 0.8911231115199807 2.063890701815864 0 0 0
925 1 1 95.4929658551372 11.001230109376277 1.36071588759992 1.933427224498174 0 0 0
999 1 1 95.4929658551372 9.068963236888228 2.1013743315277664 2.0995444758647466 0 0 0
967 1 1 95.4929658551372 0.32601174738751065 2.3678158650926435 1.978785512215205 0 0 0
975 1 1 95.4929658551372 2.370473639436553 2.2371164470871467 1.8414640160473312 0 0 0
979 1 1 95.4929658551372 3.496160155049509 2.2030556305682505 2.058174546794576 0 0 0
983 1 1 95.4929658551372 4.612005742399915 2.224635592086947 1.9997294079972208 0 0 0
987 1 1 95.4929658551372 5.730561935775215 2.206819682572812 2.004258867570797 0 0 0
991 1 1 95.4929658551372 6.856727188514085 2.1973465886549604 2.011139129977366 0 0 0
995 1 1 95.4929658551372 7.990472922413111 2.2308735061233738 2.051481604330461 0 0 0
1007 1 1 95.4929658551372 11.193312771108163 2.4488512191169858 2.1363458730027554 0 0 0
969 1 1 95.4929658551372 0.20812157723904373 3.5576361386982094 2.183760399236915 0 0 0
977 1 1 95.4929658551372 2.1741217341964116 3.350073642862233 1.8268245428224008 0 0 0
981 1 1 95.4929658551372 3.2646818503943855 3.3018147298144997 2.0829997534562774 0 0 0
985 1 1 95.4929658551372 4.370845999894177 3.3193727222857428 2.0568521090707215 0 0 0
989 1 1 95.4929658551372 5.527467212092235 3.3269865114193866 2.066898940158886 0 0 0
993 1 1 95.4929658551372 6.646080174160026 3.3093337783651338 2.0525262948813565 0 0 0
997 1 1 95.4929658551372 7.760802250610483 3.33686618099275 2.092465389381233 0 0 0
1001 1 1 95.4929658551372 8.885654003505325 3.2246761744122217 2.044445437736392 0 0 0
1009 1 1 95.4929658551372 11.006980456582921 3.5770999101235623 2.0295385097398557 0 0 0
1051 1 1 95.4929658551372 0.38932105616967894 4.673072456267461 1.9891406569197434 0 0 0
1059 1 1 95.4929658551372 2.397408139355321 4.447531907124563 1.9501899493347055 0 0 0
1063 1 1 95.4929658551372 3.519080396986714 4.4182569033899695 2.0419738439274013 0 0 0
1067 1 1 95.4929658551372 4.64105553227113 4.426492796164972 1.9779860312278799 0 0 0
1071 1 1 95.4929658551372 5.773432307884443 4.414265409780646 1.9915224987103477 0 0 0
1075 1 1 95.4929658551372 6.893235504655103 4.410751991693356 2.0036538737232474 0 0 0
1079 1 1 95.4929658551372 8.027166627663984 4.434955080207525 2.0080283913814236 0 0 0
1083 1 1 95.4929658551372 9.153389649149824 4.3284546749574835 2.124855271183174 0 0 0
1091 1 1 95.4929658551372 11.179086090760693 4.666591750959599 1.9632382163575328 0 0 0
1061 1 1 95.4929658551372 2.2668399315275938 5.616816965507138 2.031962421950104 0 0 0
1065 1 1 95.4929658551372 3.375085585532519 5.563953563185754 2.0760128571923464 0 0 0
1069 1 1 95.4929658551372 4.5113638159002045 5.5606966956810595 2.0715623644887335 0 0 0
1073 1 1 95.4929658551372 5.688606182602301 5.580599315864117 2.0639737536335447 0 0 0
1077 1 1 95.4929658551372 6.852965201255098 5.521631364736885 2.0606346254738255 0 0 0
1081 1 1 95.4929658551372 8.004551975151479 5.556473657525259 2.064946442248373 0 0 0
1085 1 1 95.4929658551372 9.106328921624394 5.5076329953276595 2.05570981118347 0 0 0
1093 1 1 95.4929658551372 11.185996099685047 5.776501458172531 1.863756050158941 0 0 0
1053 1 1 95.4929658551372 0.23148984574076145 5.763511966765127 1.861496884608794 0 0 0
1135 1 1 95.4929658551372 0.3253849253686926 6.926863609864391 1.9663041600474873 0 0 0
1143 1 1 95.4929658551372 2.318595982097373 6.711225193754426 1.952641786153526 0 0 0
1147 1 1 95.4929658551372 3.448188725309489 6.6726821900797315 2.031645836286866 0 0 0
1151 1 1 95.4929658551372 4.606013120834509 6.66226602653625 2.0148021938126885 0 0 0
1155 1 1 95.4929658551372 5.757736536966358 6.691016548619736 2.008732286025441 0 0 0
1159 1 1 95.4929658551372 6.861923703619728 6.655555646954861 2.0207085467966643 0 0 0
1163 1 1 95.4929658551372 8.020381154983742 6.675000685439634 2.029070043244805 0 0 0
1167 1 1 95.4929658551372 9.157288338135814 6.611890629080179 2.0619529005067134 0 0 0
1175 1 1 95.4929658551372 11.302463776428405 6.907131064124741 1.9290626061976903 0 0 0
1145 1 1 95.4929658551372 2.3179691623788354 7.808473884039909 1.9731733936872244 0 0 0
1149 1 1 95.4929658551372 3.4372365507826688 7.789744519438005 2.065175565673053 0 0 0
1153 1 1 95.4929658551372 4.5833554790485 7.80053008609842 2.0574435049264106 0 0 0
1157 1 1 95.4929658551372 5.7404466148029565 7.8166339428007925 2.0572558074833323 0 0 0
1161 1 1 95.4929658551372 6.84803989089397 7.770549374066567 2.058432189059218 0 0 0
1165 1 1 95.4929658551372 8.00964250262714 7.788999185395447 2.050277152243813 0 0 0
1169 1 1 95.4929658551372 9.113911387487349 7.771491756676584 2.131542883113452 0 0 0
1137 1 1 95.4929658551372 0.3697172746377412 8.024210893843883 1.957852787108679 0 0 0
1177 1 1 95.4929658551372 11.208987947593876 8.016604888796287 1.9460226963030653 0 0 0
1219 1 1 95.4929658551372 0.447613396696091 9.14336693936065 1.9546972486681304 0 0 0
1231 1 1 95.4929658551372 2.415269048930266 8.981748501605294 1.9665285713531342 0 0 0
1237 1 1 95.4929658551372 3.5491836807803256 8.943073474170935 2.044141993592179 0 0 0
1243 1 1 95.4929658551372 4.661734152066208 8.942222453452253 2.027095476680092 0 0 0
1249 1 1 95.4929658551372 5.8137964249348695 8.957774769462734 2.028349348127718 0 0 0
1255 1 1 95.4929658551372 6.925410200672242 8.953042485635097 2.0387812694131426 0 0 0
1261 1 1 95.4929658551372 8.082457289719406 8.991815648218902 2.037151643002333 0 0 0
1267 1 1 95.4929658551372 9.189916851489325 8.947948389079567 2.0760436697170825 0 0 0
1279 1 1 95.4929658551372 11.288382603077004 9.118020443984056 1.8843094402145453 0 0 0
1233 1 1 95.4929658551372 2.0823907238618156 10.03762361486656 1.958665090365604 0 0 0
1239 1 1 95.4929658551372 3.191153404412481 10.044235477337214 2.102564511478914 0 0 0
1245 1 1 95.4929658551372 4.300590853669457 10.062327465299893 2.101164841792855 0 0 0
1251 1 1 95.4929658551372 5.432382679150328 10.020673318475136 2.08588930351079 0 0 0
1257 1 1 95.4929658551372 6.5509285789486675 10.003969497538556 2.081281735921357 0 0 0
1263 1 1 95.4929658551372 7.6547336796905805 10.061400222434612 2.0646802899084573 0 0 0
1269 1 1 95.4929658551372 8.810273713262038 9.99356970140856 2.049632597880403 0 0 0
1221 1 1 95.4929658551372 0.1794565856655661 10.235896071964666 1.9420879580299182 0 0 0
1281 1 1 95.4929658551372 10.924590201689064 10.183347444241065 1.8357183538866975 0 0 0
1223 1 1 95.4929658551372 0.5867401233127286 11.349019646732991 1.8952007159758077 0 0 0
1235 1 1 95.4929658551372 2.6243215323308853 11.065521263265708 1.8763663333540075 0 0 0
1241 1 1 95.4929658551372 3.767394088611351 11.029272994318797 1.9907972641130274 0 0 0
1247 1 1 95.4929658551372 4.902133401277928 11.053263760314525 1.9869227437012467 0 0 0
1253 1 1 95.4929658551372 6.014473424923435 11.069058559837334 2.0116535273354215 0 0 0
1259 1 1 95.4929658551372 7.123618724793158 11.058299925649733 1.9640405565568175 0 0 0
1265 1 1 95.4929658551372 8.294848015533992 11.046995061893496 2.0166114289409687 0 0 0
1271 1 1 95.4929658551372 9.39794925087005 10.99585771139175 1.9805415648424325 0 0 0
1283 1 1 95.4929658551372 11.362935764126824 11.230712776558184 1.9983488286337885 0 0 0
919 1 1 5.968310365946075 10.295282432158592 0.048060205922488455 2.481250698909123 0 0 0
889 1 1 95.4929658551372 1.0112821626321806 1.0458406287137432 2.5120637362539946 0 0 0
921 1 1 95.4929658551372 9.953457092144204 1.1022019940432164 2.318917307221012 0 0 0
971 1 1 95.4929658551372 1.310562353273353 2.0907224698244185 2.40004859027372 0 0 0
1003 1 1 95.4929658551372 10.143835245537451 2.1660461449511157 2.5302076267715026 0 0 0
973 1 1 95.4929658551372 1.266301509036178 3.2026474450677758 2.517373036009028 0 0 0
1005 1 1 95.4929658551372 9.945108092288178 3.2242687194428252 2.3546454094098093 0 0 0
1055 1 1 95.4929658551372 1.3264682592165147 4.298159399801314 2.3727264814295523 0 0 0
1087 1 1 95.4929658551372 10.189657576194762 4.417555936948426 2.5301848288177506 0 0 0
1057 1 1 95.4929658551372 1.2208239301407238 5.437168799063563 2.375265173944417 0 0 0
1089 1 1 95.4929658551372 10.167617255085425 5.608221773870884 2.3224544138054166 0 0 0
1139 1 1 95.4929658551372 1.322789437214232 6.592417410710989 2.4153088664748266 0 0 0
1171 1 1 95.4929658551372 10.202603912680257 6.713222038653602 2.3669583634804656 0 0 0
1141 1 1 95.4929658551372 1.2875490645271417 7.701135113043074 2.4259794849125784 0 0 0
1173 1 1 95.4929658551372 10.200298297503304 7.8933008578874535 2.3721759107852396 0 0 0
1225 1 1 95.4929658551372 1.3824085550578495 8.783905851965313 2.43949366411196 0 0 0
1273 1 1 95.4929658551372 10.26337841046265 9.013555560770982 2.377194196014491 0 0 0
1227 1 1 95.4929658551372 1.0467475275984135 9.861462994164295 2.495175687821033 0 0 0
1275 1 1 95.4929658551372 9.855997659700428 10.072599409346866 2.3408722609207926 0 0 0
1229 1 1 95.4929658551372 1.5660170732474143 11.023335018940012 2.3101486995369545 0 0 0
1277 1 1 95.4929658551372 10.372405534242864 11.172648634324272 2.568431435702129 0 0 0
884 1 1 95.4929658551372 0.5349273277102992 0.2557567858741193 3.0815728039031844 0 0 0
888 1 1 95.4929658551372 1.610457988888024 0.11345777422414487 3.4042565287909987 0 0 0
892 1 1 95.4929658551372 2.676477412297541 0.15131779177529528 2.90176189455743 0 0 0
896 1 1 95.4929658551372 3.8017916885914294 0.13569817576439364 3.0674805409808608 0 0 0
900 1 1 95.4929658551372 4.918571415645322 0.12263794942008212 3.0438497569506873 0 0 0
904 1 1 95.4929658551372 6.029192099008682 0.14209645476987806 3.047314248484349 0 0 0
908 1 1 95.4929658551372 7.142693366869826 0.13058138202332964 3.066521193096084 0 0 0
912 1 1 95.4929658551372 8.235808721810493 0.16543274605662914 3.0950710205005 0 0 0
916 1 1 95.4929658551372 9.331329348973577 0.07907397334206516 3.100522571178333 0 0 0
894 1 1 95.4929658551372 2.0155615108890803 1.1296536281191663 3.058604669069327 0 0 0
898 1 1 95.4929658551372 3.132637026557976 1.116596494819105 3.190057510100916 0 0 0
902 1 1 95.4929658551372 4.3073407700330435 1.1094866955790539 3.158012539008818 0 0 0
906 1 1 95.4929658551372 5.444178086332631 1.1240618956690405 3.180370256553746 0 0 0
910 1 1 95.4929658551372 6.5655364543720145 1.1280429575264197 3.1935240022142364 0 0 0
914 1 1 95.4929658551372 7.686429922931496 1.1636398217020096 3.1940741675228286 0 0 0
918 1 1 95.4929658551372 8.839723175670542 1.093556727938524 3.191833132050033 0 0 0
922 1 1 95.4929658551372 9.959948800855994 1.1931314345991324 3.439884927789321 0 0 0
926 1 1 95.4929658551372 11.076963841333304 1.0166000320057347 3.041662037564649 0 0 0
886 1 1 95.4929658551372 0.14727025706053365 1.505558971186951 3.12366500217291 0 0 0
968 1 1 95.4929658551372 0.39129806210963164 2.580123840038903 3.0545492703867123 0 0 0
972 1 1 95.4929658551372 1.3505172736395774 2.1936229695174294 3.5386930910833145 0 0 0
976 1 1 95.4929658551372 2.4124542943620373 2.195536963338426 3.0288262475999503 0 0 0
980 1 1 95.4929658551372 3.5380644404092996 2.1952665383148364 3.174238255776221 0 0 0
984 1 1 95.4929658551372 4.698178588472984 2.2023053055786517 3.183184579118543 0 0 0
988 1 1 95.4929658551372 5.8369416705814725 2.211867019598623 3.1869125134996747 0 0 0
992 1 1 95.4929658551372 6.946241325383128 2.206318855046594 3.1692794164449904 0 0 0
996 1 1 95.4929658551372 8.079925037852409 2.2236539170872303 3.1634979393676916 0 0 0
1000 1 1 95.4929658551372 9.227947750050582 2.173975037186371 3.166839885291468 0 0 0
1004 1 1 95.4929658551372 10.19778360033605 2.251539828279081 3.6350061327521526 0 0 0
1008 1 1 95.4929658551372 11.231606442130397 2.184495364932995 3.223010036408225 0 0 0
970 1 1 95.4929658551372 0.06670770431880016 3.596884603336507 3.2742920191639677 0 0 0
974 1 1 95.4929658551372 1.0644665241774363 3.2492550409401906 3.6237809841198243 0 0 0
978 1 1 95.4929658551372 2.213349230005248 3.3158356912816247 3.1110791378283578 0 0 0
982 1 1 95.4929658551372 3.3176358442258933 3.3270789687618123 3.2263268084173053 0 0 0
986 1 1 95.4929658551372 4.462604526100632 3.321110908191193 3.1781403913321538 0 0 0
990 1 1 95.4929658551372 5.618682160756175 3.3164339058231946 3.188645956760505 0 0 0
994 1 1 95.4929658551372 6.789895266337034 3.3232818927143293 3.1784177170762935 0 0 0
998 1 1 95.4929658551372 7.9446729751721 3.3455902011951135 3.2016489648416 0 0 0
1002 1 1 95.4929658551372 9.11475897236283 3.2865708133523897 3.123044299330827 0 0 0
1006 1 1 95.4929658551372 10.185627415381573 3.360998065733908 3.4382291415174207 0 0 0
1010 1 1 95.4929658551372 11.220621763694535 3.3608988067161985 3.0847800836624124 0 0 0
1056 1 1 95.4929658551372 0.9835428484117201 4.392716404419376 3.4545007505373793 0 0 0
1060 1 1 95.4929658551372 2.1437104864871506 4.474487879414693 3.1158334710734588 0 0 0
1064 1 1 95.4929658551372 3.2581627274043417 4.464316245355988 3.1272164166586296 0 0 0
1068 1 1 95.4929658551372 4.378711995671899 4.456409869721989 3.1221389372227533 0 0 0
1072 1 1 95.4929658551372 5.516753103879499 4.447813108534042 3.116314985053435 0 0 0
1076 1 1 95.4929658551372 6.649813170563982 4.450989649201637 3.132879447128929 0 0 0
1080 1 1 95.4929658551372 7.7698640087718225 4.4576298456550685 3.153972945236056 0 0 0
1084 1 1 95.4929658551372 8.877650803188576 4.45604832314607 3.2111867436986707 0 0 0
1088 1 1 95.4929658551372 9.955721890035248 4.4507044043266974 3.6364609526043474 0 0 0
1092 1 1 95.4929658551372 11.032793225914926 4.540305696498808 3.223279560694669 0 0 0
1058 1 1 95.4929658551372 1.0390088479560806 5.495592803397251 3.487462400865854 0 0 0
1062 1 1 95.4929658551372 2.149714946240389 5.5767951963387565 3.182494661146365 0 0 0
1066 1 1 95.4929658551372 3.3055678731655154 5.586996012710039 3.2209150915300637 0 0 0
1070 1 1 95.4929658551372 4.42706686559792 5.580856487998778 3.220085917902651 0 0 0
1074 1 1 95.4929658551372 5.57569671926384 5.548657673453618 3.226274267279361 0 0 0
1078 1 1 95.4929658551372 6.740229885162379 5.560360813537353 3.22987261035616 0 0 0
1082 1 1 95.4929658551372 7.858587976630614 5.567127676232639 3.247008345493283 0 0 0
1086 1 1 95.4929658551372 9.005878456103336 5.558530071430534 3.188400153824203 0 0 0
1090 1 1 95.4929658551372 10.080542199050264 5.590437581055762 3.5670291704552253 0 0 0
1094 1 1 95.4929658551372 11.099851444131975 5.6864795627437985 2.986667547206235 0 0 0
1054 1 1 95.4929658551372 0.08542477542026958 5.823762946851119 2.950261592620911 0 0 0
4113 1 1 5.968310365946075 9.23986925225769 10.95707419644256 10.953649040069793 0 0 0
1140 1 1 95.4929658551372 1.0607112243454864 6.688875784915317 3.4954050262475524 0 0 0
1144 1 1 95.4929658551372 2.166521970844545 6.6951068505785125 3.1377096132674085 0 0 0
1148 1 1 95.4929658551372 3.267772040477448 6.6719054022899495 3.1786682670674518 0 0 0
1152 1 1 95.4929658551372 4.414246543045075 6.664188780971343 3.172279199110019 0 0 0
1156 1 1 95.4929658551372 5.590598001967972 6.657505008350939 3.1711575144244946 0 0 0
1160 1 1 95.4929658551372 6.707290091392374 6.677887408949649 3.1741604519562636 0 0 0
1164 1 1 95.4929658551372 7.811457730489835 6.686700234050404 3.19893325648948 0 0 0
1168 1 1 95.4929658551372 8.956289155106877 6.674821737600426 3.1862790580957285 0 0 0
1172 1 1 95.4929658551372 10.014360238768488 6.75266424405887 3.539722236174153 0 0 0
1176 1 1 95.4929658551372 11.058364035929683 6.783090882574402 3.034178164221198 0 0 0