ITEM: TIMESTEP
0
ITEM: NUMBER OF ATOMS
16
ITEM: BOX BOUNDS pp pp pp
-2.0000000000000000e+01 2.0000000000000000e+01
-2.0000000000000000e+01 2.0000000000000000e+01
-2.0000000000000000e+01 2.0000000000000000e+01
ITEM: ATOMS id mol type x y z ix iy iz vx vy vz c_quat[1] c_quat[2] c_quat[3] c_quat[4] angmomx angmomy angmomz
1 1 1 -6.133472972454683e-01 -6.574781716697657e-01  3.606522635120193e-01 0 0 0  5.386890022865587e-02  2.262922525602673e-02  2.488229114473675e-01  9.964752158482045e-01 -5.325355573323980e-02  1.139116380710251e-02 -6.380787090289707e-02  1.772010258006941e-01 -2.958853170000101e-01 -2.624137503614725e-01
2 1 2 -4.526276424735620e-01 -1.003065053434590e+00  7.258693379233350e-01 0 0 0 -3.995003075629463e-02  2.696951106370198e-01 -1.898645454819566e-01  9.369923833143513e-01  1.122071604464856e-01  6.732538499716349e-02  3.239168400846305e-01 -3.061453937596818e-02 -1.176951893148060e-01  4.007470242647321e-02
3 1 3 -9.883421085226374e-02 -1.239775807128058e+00  1.069462285786361e+00 0 0 0 -2.078453529520138e-01 -1.362872235767304e-01 -6.062477950201746e-02  7.979649320918270e-01  1.447309635452787e-01  1.837414269936639e-01  5.554673737937029e-01 -3.676034584820381e-02 -6.308707793373186e-02 -1.479860157608762e-01
4 1 4  2.937771854299740e-01 -1.257975092489986e+00  1.425891608660695e+00 0 0 0 -2.396982418131700e-01 -5.624721730878831e-01  3.247442290503672e-02  5.660864821344559e-01  1.468827549948105e-01  9.873742533340191e-02  8.051226439917721e-01 -1.652364596501651e-01  2.860623077030974e-01  3.354351975310588e-01
5 1 1  6.286896795685166e-01 -1.018334339511973e+00  1.768934633967284e+00 0 0 0 -1.611489735682835e-01 -2.288969747076015e-01 -1.355332496264956e-01  2.533023785125306e-01  1.206231316167983e-01  8.583012223905846e-02  9.559922359911086e-01  7.151030852881342e-02 -9.415592891043179e-02  1.342288153931229e-01
6 1 2  7.901522619067975e-01 -6.766341805565261e-01  2.154016070549574e+00 0 0 0 -4.701706588477693e-02  1.921671558511004e-01  1.458824279129722e-01 -3.855807343534716e-02  8.405913137017908e-02  2.236505169306371e-02  9.954632800204194e-01  9.218622989776322e-02 -5.640128930702024e-01  9.287105657777776e-02
7 1 3  7.115777184886873e-01 -4.019557932514353e-01  2.569568683291529e+00 0 0 0  5.098438305112513e-02 -3.845955552200959e-02 -1.424419628574967e-01 -4.559284433024802e-01  1.004550065061007e-01 -5.252474529475878e-02  8.827679181910482e-01  3.479046835475834e-01  4.244922695910593e-01 -1.358288260435836e-01
8 1 4  4.697331037700536e-01 -3.025169796710685e-01  3.066800711751920e+00 0 0 0  3.782797134841193e-01 -4.953992506010833e-02  1.626392045834847e-01  7.680212215404908e-01 -9.582139884533597e-03  3.658677589040892e-02 -6.393066507464399e-01  4.428876596361290e-02  7.868414126013584e-02 -1.271360044432503e-01
9 2 1  4.056113349449895e-01 -1.443775499211899e+00  3.059072650334112e+00 0 0 0  4.912038408665491e-02  4.126064731871670e-02  1.222385633449523e-02 -2.329997575451234e-01  6.886863952313410e-01  6.747873944883376e-01 -1.268232401684158e-01  3.282916621721876e-02 -1.267054709525600e-04  1.559787854176960e-01
10 2 2 -3.202842905928804e-02 -1.294752097116472e+00  2.720107115139218e+00 0 0 0  1.939216183073483e-01  1.107523548538194e-01 -4.050505160199710e-02 -2.466206187190723e-01  8.744456399178389e-01  3.937083608782400e-01 -1.397026120939516e-01 -1.700813500181381e-01 -4.563093565840761e-01 -3.031851362703951e-01
11 2 3 -3.161385511231423e-01 -9.084141759061595e-01  2.412520787178206e+00 0 0 0 -3.513607339206460e-01 -1.882241906753569e-01  3.614793819905130e-01 -8.747590085090901e-02  9.773676023882290e-01  1.449354911309558e-01 -1.268630757266878e-01 -3.708221604627426e-01 -4.910838182594122e-01  9.435948331955418e-02
12 2 4 -3.893939125182087e-01 -4.866605488242826e-01  2.006177777000424e+00 0 0 0 -1.188642917357977e-01  2.235528245655188e-01  9.265586122144348e-03 -3.181169300779214e-02  9.634374984140114e-01 -2.442360692534372e-01 -1.054748563087919e-01 -2.823010018885836e-01  1.027648566082889e-01  1.017523347678070e-01
13 3 1 -6.232643040853247e-02 -7.155965522127516e-02  1.559320605273072e+00 0 0 0 -1.446616296238799e-01 -1.155205990978724e-01  1.331477187595642e-01 -3.278607069657226e-02  7.922941528811774e-01 -6.084214170523914e-01 -3.191282109962716e-02 -2.549872189037434e-01  2.754663721641154e-01  5.806416868630132e-02
14 3 2  1.788409039091334e-01 -5.516721349427200e-02  1.021273149730916e+00 0 0 0  5.154712003586254e-02 -3.661102651077563e-01 -6.630782880801242e-02  4.718868628834144e-02  6.316396208287697e-01 -7.737349519945346e-01  1.178309584462780e-02 -1.199984717331652e-01  6.844768922886051e-02  2.161595932308759e-01
15 3 3  4.513439961906016e-01 -2.379560738327449e-01  5.957328539616000e-01 0 0 0 -2.021424496209139e-01  2.334122693355961e-01  8.133374252278069e-03 -5.869980642620334e-02 -3.422935820341442e-01  9.376740835056506e-01  1.251996587850869e-02 -1.701391112413525e-01  1.870292260510287e-02 -2.682954134361106e-01
16 3 4  5.077649359807950e-01 -5.565625134533541e-01  1.655875784458836e-01 0 0 0 -1.920213116286801e-01 -8.105295741355378e-02 -4.693508108850740e-02 -8.582818143150042e-02  8.707732197394232e-04  9.939540921464659e-01 -6.846917358531610e-02  1.733210765264759e-02 -3.287658886280769e-01  1.085334141225924e-01
ITEM: TIMESTEP
1000
ITEM: NUMBER OF ATOMS
16
ITEM: BOX BOUNDS pp pp pp
-2.0000000000000000e+01 2.0000000000000000e+01
-2.0000000000000000e+01 2.0000000000000000e+01
-2.0000000000000000e+01 2.0000000000000000e+01
ITEM: ATOMS id mol type x y z ix iy iz vx vy vz c_quat[1] c_quat[2] c_quat[3] c_quat[4] angmomx angmomy angmomz
1 1 1 -6.127936525102768e-01 -6.572900069550158e-01  3.630888071051110e-01 0 0 0  5.676462562075640e-02  1.518727846191844e-02  2.380012624554110e-01  9.964203786967804e-01 -5.088080930342631e-02  8.442642906697280e-03 -6.697980250152534e-02  1.948222267211010e-01 -2.707251008082822e-01 -2.655680200874564e-01
2 1 2 -4.530236164006816e-01 -1.000361915096338e+00  7.239858214777470e-01 0 0 0 -3.911771291306023e-02  2.706786881128387e-01 -1.862902072294398e-01  9.369792470569374e-01  1.114053539615289e-01  6.624855111697248e-02  3.244531817816294e-01 -3.249725157130413e-02 -1.139168361598446e-01  3.624747328041253e-02
3 1 3 -1.009410828901629e-01 -1.241112101008326e+00  1.068947011325566e+00 0 0 0 -2.135474384236676e-01 -1.309787333985826e-01 -4.245369421019171e-02  7.991290393623244e-01  1.443982136441095e-01  1.829432844744273e-01  5.541423003254194e-01 -4.097590108928844e-03 -8.375296037765319e-02 -1.579017428975384e-01
4 1 4  2.914060483706429e-01 -1.263558885835494e+00  1.426157232398442e+00 0 0 0 -2.345115636030219e-01 -5.541786092337390e-01  2.060035269968381e-02  5.629167234712676e-01  1.479622196427288e-01  1.028034608769014e-01  8.066370884273181e-01 -1.910146641728450e-01  2.814900508546554e-01  3.432035514741108e-01
5 1 1  6.270732810973776e-01 -1.020614483055311e+00  1.767581307469392e+00 0 0 0 -1.620690792586016e-01 -2.270136086583378e-01 -1.350989550673660e-01  2.518491257207196e-01  1.196941656181992e-01  8.497621355262790e-02  9.565690606124214e-01  6.861660641153715e-02 -8.852783714421342e-02  1.291143055770784e-01
6 1 2  7.896658935038445e-01 -6.747507049734409e-01  2.155491502037023e+00 0 0 0 -5.026938180221083e-02  1.843013191372162e-01  1.491682841754263e-01 -3.963624872967170e-02  7.758991907586210e-02  2.168181151302458e-02  9.959611796119137e-01  8.723487757043698e-02 -5.549038892154754e-01  1.055532339753259e-01
7 1 3  7.120582233063928e-01 -4.023185351331868e-01  2.568192485330478e+00 0 0 0  4.507002966127747e-02 -3.400369880654753e-02 -1.327240041482815e-01 -4.546894461993586e-01  1.028073287362324e-01 -5.836160539024312e-02  8.827695529917842e-01  3.405970379272235e-01  4.112725815811017e-01 -1.351548610049584e-01
8 1 4  4.735504374334951e-01 -3.030404292583988e-01  3.068364972592768e+00 0 0 0  3.851538525078895e-01 -5.515699582495124e-02  1.501513907056504e-01  7.670569571655605e-01 -9.728487431147303e-03  3.765085828643619e-02 -6.403994018317853e-01  4.611818409791097e-02  8.424201189139266e-02 -1.271197736264726e-01
9 2 1  4.060622651273782e-01 -1.443364770845101e+00  3.059138528673987e+00 0 0 0  4.105345880436246e-02  4.088857317322446e-02  9.525524000653135e-04 -2.329977239011297e-01  6.873828769999893e-01  6.760809549337263e-01 -1.270093832754539e-01  2.654673925917754e-02 -1.584434830782279e-03  1.596768441532700e-01
10 2 2 -3.006723246043208e-02 -1.293597735465937e+00  2.719745584631998e+00 0 0 0  1.982498236614774e-01  1.200668763947791e-01 -3.166121003881719e-02 -2.432778214296964e-01  8.769907957988486e-01  3.917550345322168e-01 -1.350223633446863e-01 -1.747799078144621e-01 -4.630814210048256e-01 -2.879119392342026e-01
11 2 3 -3.196435234636397e-01 -9.102455367890094e-01  2.416093647303459e+00 0 0 0 -3.495483594429226e-01 -1.778627764777553e-01  3.528226806068661e-01 -8.245363940445308e-02  9.782816075898487e-01  1.458537691197026e-01 -1.220375828749408e-01 -3.554301340735545e-01 -4.904771109845068e-01  7.620416916907322e-02
12 2 4 -3.905728971915856e-01 -4.845208615981349e-01  2.006325206770981e+00 0 0 0 -1.169379462853553e-01  2.042489629724503e-01  2.034974987704285e-02 -2.830391875086512e-02  9.636903772787605e-01 -2.434951142506233e-01 -1.058766936570126e-01 -2.767064673052345e-01  1.048482362808096e-01  9.988254088868236e-02
13 3 1 -6.373831494852311e-02 -7.271141889643928e-02  1.560599903675271e+00 0 0 0 -1.376657723527460e-01 -1.148498784143296e-01  1.227000584458846e-01 -2.854886130718273e-02  7.927177408777200e-01 -6.080419492234866e-01 -3.268843526830729e-02 -2.475505850381815e-01  2.756915077289027e-01  6.710869310060324e-02
14 3 2  1.793644483981502e-01 -5.884870154972788e-02  1.020644767735639e+00 0 0 0  5.304817407190626e-02 -3.700342840143274e-01 -5.934837541790188e-02  4.859778879095984e-02  6.335291269055809e-01 -7.720900024845756e-01  1.249513306249745e-02 -1.185981514861645e-01  6.046730878009061e-02  2.220671215296268e-01
15 3 3  4.492958819432111e-01 -2.356383613560062e-01  5.958111482559190e-01 0 0 0 -2.074453440148330e-01  2.299354897195555e-01  7.376111203366249e-03 -5.952079159091373e-02 -3.392589903443923e-01  9.387454954961152e-01  1.084008877490484e-02 -1.861046232594724e-01  1.070670671402474e-02 -2.716803165990631e-01
16 3 4  5.058286075707876e-01 -5.573396897223084e-01  1.651387495757994e-01 0 0 0 -1.952153285419388e-01 -7.432287957448566e-02 -4.268961111602684e-02 -8.198799355406698e-02 -8.620779202651285e-05  9.942855987019107e-01 -6.836746079223610e-02  1.786164920570026e-02 -3.289368790365436e-01  1.012111325889587e-01
ITEM: TIMESTEP
2000
ITEM: NUMBER OF ATOMS
16
ITEM: BOX BOUNDS pp pp pp
-2.0000000000000000e+01 2.0000000000000000e+01
-2.0000000000000000e+01 2.0000000000000000e+01
-2.0000000000000000e+01 2.0000000000000000e+01
ITEM: ATOMS id mol type x y z ix iy iz vx vy vz c_quat[1] c_quat[2] c_quat[3] c_quat[4] angmomx angmomy angmomz
1 1 1 -6.122140943974905e-01 -6.571706323866806e-01  3.654022521678080e-01 0 0 0  5.903393649575289e-02  8.882167672728558e-03  2.241709269191994e-01  9.963472500289801e-01 -4.832656062504979e-02  5.814443138914326e-03 -7.016333193931730e-02  2.122341853420122e-01 -2.425022885726745e-01 -2.677364116066558e-01
2 1 2 -4.534072475848880e-01 -9.976566644650333e-01  7.221549539181957e-01 0 0 0 -3.746160187988012e-02  2.701084490083475e-01 -1.792929747175147e-01  9.369804534215259e-01  1.106090671494903e-01  6.519394269438193e-02  3.249353997432001e-01 -3.183526579604332e-02 -1.129074001081876e-01  3.078225806564263e-02
3 1 3 -1.031055103152596e-01 -1.242395562930703e+00  1.068612529599015e+00 0 0 0 -2.193544969356713e-01 -1.257250020897283e-01 -2.448666007270650e-02  8.003385586715673e-01  1.442512720273799e-01  1.817352355963627e-01  5.528309562286969e-01  2.787898212931745e-02 -1.039578977221130e-01 -1.666558813638659e-01
4 1 4  2.890872823615496e-01 -1.269056514053503e+00  1.426302867502585e+00 0 0 0 -2.292262108026552e-01 -5.452397515912818e-01  8.501835391180875e-03  5.597143368247923e-01  1.488194281900869e-01  1.070805098628647e-01  8.081499881540972e-01 -2.157815198425400e-01  2.761704234982248e-01  3.492548064554657e-01
5 1 1  6.254494778494788e-01 -1.022872311322985e+00  1.766233203353753e+00 0 0 0 -1.626352359186101e-01 -2.244401270555633e-01 -1.344997427830182e-01  2.504462287928895e-01  1.188199740995147e-01  8.416791200153202e-02  9.571176849414668e-01  6.484619386492151e-02 -8.321168874339001e-02  1.247564483139370e-01
6 1 2  7.891466288716877e-01 -6.729525731757526e-01  2.156998671609344e+00 0 0 0 -5.359541962913938e-02  1.751097898535845e-01  1.522243056136960e-01 -4.084748512472038e-02  7.124124892393013e-02  2.106258861533446e-02  9.963997866175834e-01  8.183810467027813e-02 -5.422750205147775e-01  1.167532945088724e-01
7 1 3  7.124782562248484e-01 -4.026342200195963e-01  2.566915570865458e+00 0 0 0  3.889692312190696e-02 -2.905367160810694e-02 -1.225952546228703e-01 -4.534427769577072e-01  1.050534983924783e-01 -6.404652390187365e-02  8.827522037788812e-01  3.330161508078844e-01  3.965823238352632e-01 -1.338645245972133e-01
8 1 4  4.774354722186089e-01 -3.036202265633534e-01  3.069802635014188e+00 0 0 0  3.918154373376566e-01 -6.080621440016399e-02  1.373319936529276e-01  7.660876953422434e-01 -9.897831236398867e-03  3.878152280807544e-02 -6.414886354961500e-01  4.864721882098451e-02  9.017180499453332e-02 -1.271840823830221e-01
9 2 1  4.064322141467756e-01 -1.442957636831174e+00  3.059091796407543e+00 0 0 0  3.292962015229867e-02  4.054378574071508e-02 -1.029008081574427e-02 -2.329282812276535e-01  6.860700421578344e-01  6.773941982546650e-01 -1.272376250517052e-01  2.062923433188044e-02 -3.616200525743118e-03  1.626299136268881e-01
10 2 2 -2.806480530452760e-02 -1.292351865947072e+00  2.719476592948599e+00 0 0 0  2.021661899679634e-01  1.290496926866561e-01 -2.200733611950130e-02 -2.398240453700179e-01  8.794482257481104e-01  3.899578884817640e-01 -1.303383700285697e-01 -1.793800708862201e-01 -4.689986449190600e-01 -2.709403793678122e-01
11 2 3 -3.231278129346187e-01 -9.119679444713356e-01  2.419572096979788e+00 0 0 0 -3.472246064006922e-01 -1.664553204215690e-01  3.426228897526289e-01 -7.763054825040282e-02  9.791613378006869e-01  1.465791738726167e-01 -1.171798545891412e-01 -3.397075893883515e-01 -4.880328878389396e-01  5.770361703309691e-02
12 2 4 -3.917328141285310e-01 -4.825780410879652e-01  2.006587118772959e+00 0 0 0 -1.150542269820084e-01  1.842034780568982e-01  3.213830002777495e-02 -2.485511931918190e-02  9.639218404737760e-01 -2.427655370644610e-01 -1.063099361070329e-01 -2.711746704148775e-01  1.060023188940994e-01  9.801276760740166e-02
13 3 1 -6.507879451999798e-02 -7.385701629529251e-02  1.561774420668552e+00 0 0 0 -1.303844975280421e-01 -1.142881677658107e-01  1.121965577741180e-01 -2.437508838157103e-02  7.931876234432832e-01 -6.075654290058137e-01 -3.351863004015331e-02 -2.401384605856608e-01  2.755390835508563e-01  7.626585960232982e-02
14 3 2  1.798995519730404e-01 -6.256475013654494e-02  1.020086572870362e+00 0 0 0  5.385463812874182e-02 -3.730138796084273e-01 -5.227177319627071e-02  4.992368394284180e-02  6.354627791525375e-01 -7.704018674221973e-01  1.325310400245347e-02 -1.167200373506163e-01  5.266684172543086e-02  2.274129051223293e-01
15 3 3  4.471958858049589e-01 -2.333612317706333e-01  5.958775569222716e-01 0 0 0 -2.125093350124405e-01  2.252987054985197e-01  5.773131993290241e-03 -6.030834662999184e-02 -3.361807828115650e-01  9.398218112438556e-01  8.963688151589395e-03 -2.007333371048852e-01  1.684930307116787e-03 -2.737271896956757e-01
16 3 4  5.038611969972493e-01 -5.580478888448468e-01  1.647364006125969e-01 0 0 0 -1.982390764258704e-01 -6.726821040786821e-02 -3.765973345581559e-02 -7.816021313868618e-02 -9.558605262215020e-04  9.946011495322723e-01 -6.825408970788706e-02  1.791661313455379e-02 -3.274522356481696e-01  9.311117451746297e-02
ITEM: TIMESTEP
3000
ITEM: NUMBER OF ATOMS
16
ITEM: BOX BOUNDS pp pp pp
-2.0000000000000000e+01 2.0000000000000000e+01
-2.0000000000000000e+01 2.0000000000000000e+01
-2.0000000000000000e+01 2.0000000000000000e+01
ITEM: ATOMS id mol type x y z ix iy iz vx vy vz c_quat[1] c_quat[2] c_quat[3] c_quat[4] angmomx angmomy angmomz
1 1 1 -6.116153845507348e-01 -6.571084204796520e-01  3.675616757285880e-01 0 0 0  6.058101326211431e-02  3.758331605106424e-03  2.071790996884887e-01  9.962573052124044e-01 -4.559711051642176e-02  3.541896486514211e-03 -7.334671289669646e-02  2.294104667204844e-01 -2.111624352704090e-01 -2.689183949997636e-01
2 1 2 -4.537697557865954e-01 -9.949650262382086e-01  7.204120439309456e-01 0 0 0 -3.487909325406259e-02  2.679561619623858e-01 -1.686754228175527e-01  9.370012510926379e-01  1.098372819921641e-01  6.411888770314274e-02  3.253508800896610e-01 -2.845672796613328e-02 -1.148204160143184e-01  2.357259198181148e-02
3 1 3 -1.053284739396858e-01 -1.243626885907329e+00  1.068456217104501e+00 0 0 0 -2.252517137585754e-01 -1.205570968330124e-01 -6.837441286197858e-03  8.015848582480412e-01  1.442838596894612e-01  1.801292045268143e-01  5.515408892703392e-01  5.892276998315888e-02 -1.236037407631169e-01 -1.741329710627179e-01
4 1 4  2.868218187836256e-01 -1.274461537730851e+00  1.426327024444376e+00 0 0 0 -2.238523010850671e-01 -5.356578962916229e-01 -3.670066094960046e-03  5.564943863448304e-01  1.494577822145594e-01  1.115506121374961e-01  8.096498195108461e-01 -2.392363320219948e-01  2.701925699430507e-01  3.534604602550060e-01
5 1 1  6.238216502884768e-01 -1.025101108466494e+00  1.764891661195918e+00 0 0 0 -1.628791830626425e-01 -2.212134617800449e-01 -1.337955291145531e-01  2.490867817236061e-01  1.179933417715456e-01  8.341503078631050e-02  9.576404748688720e-01  6.017671965121021e-02 -7.830583777681543e-02  1.212056777152461e-01
6 1 2  7.885937526264186e-01 -6.712527001254180e-01  2.158535087697789e+00 0 0 0 -5.699129266991186e-02  1.646609710245331e-01  1.550098360428074e-01 -4.217549989853690e-02  6.505374670735314e-02  2.050845481453774e-02  9.967791332731462e-01  7.603920446539721e-02 -5.262766642620830e-01  1.264413424456952e-01
7 1 3  7.128354422483518e-01 -4.028980714355299e-01  2.565741771483143e+00 0 0 0  3.250804609493640e-02 -2.364250863305157e-02 -1.121087240193368e-01 -4.521972600602622e-01  1.071809439695080e-01 -6.956865524534721e-02  8.827174437220275e-01  3.251689424638050e-01  3.804987888430342e-01 -1.319504299471761e-01
8 1 4  4.813859488765786e-01 -3.042565981362273e-01  3.071110746738896e+00 0 0 0  3.982378562625718e-01 -6.646886126447872e-02  1.242526769821993e-01  7.651125975451623e-01 -1.008691845680089e-02  3.998687646621942e-02 -6.425745224207193e-01  5.183135618917280e-02  9.644742083681897e-02 -1.273189638063205e-01
9 2 1  4.067207809187536e-01 -1.442553763549100e+00  3.058932994093631e+00 0 0 0  2.478287950666526e-02  4.023847792889491e-02 -2.145242851217523e-02 -2.327910858138825e-01  6.847533481797307e-01  6.787232781904310e-01 -1.274985261274688e-01  1.511922867421127e-02 -6.230825760900127e-03  1.648502346752385e-01
10 2 2 -2.602531400719243e-02 -1.291017922303425e+00  2.719307910585989e+00 0 0 0  2.056608843849753e-01  1.376785187616819e-01 -1.161221195108792e-02 -2.362629350973982e-01  8.818091048219628e-01  3.883316144450539e-01 -1.256625854212347e-01 -1.838599016462312e-01 -4.740504180557695e-01 -2.524530737013506e-01
11 2 3 -3.265863298871778e-01 -9.135715936776947e-01  2.422941475331989e+00 0 0 0 -3.443953096332611e-01 -1.541330319570079e-01  3.310341798792179e-01 -7.301278719162582e-02  9.800077165100992e-01  1.471064200266508e-01 -1.123107727429295e-01 -3.237493178654309e-01 -4.838277291571670e-01  3.895376295854690e-02
12 2 4 -3.928741854779041e-01 -4.808387924466970e-01  2.006969862825734e+00 0 0 0 -1.132314775208165e-01  1.635576713291325e-01  4.449423342920421e-02 -2.146728804129251e-02  9.641336584659377e-01 -2.420469333735795e-01 -1.067648172465292e-01 -2.656756986610995e-01  1.063295765429782e-01  9.618246581597893e-02
13 3 1 -6.634512993960229e-02 -7.499756019679893e-02  1.562843746203619e+00 0 0 0 -1.228407162987093e-01 -1.138398023332228e-01  1.016663700121384e-01 -2.026702890091661e-02  7.937052640816217e-01 -6.069908484060852e-01 -3.439929156121178e-02 -2.327736187616804e-01  2.750162987551308e-01  8.552909001914487e-02
14 3 2  1.804391422949863e-01 -6.630567542424615e-02  1.019599692003776e+00 0 0 0  5.394152549694631e-02 -3.750026918806548e-01 -4.508737659185456e-02  5.116485413532326e-02  6.374353367918376e-01 -7.686747739225090e-01  1.405137166141941e-02 -1.143861681274380e-01  4.508181869839630e-02  2.321284084825784e-01
15 3 3  4.450466784091098e-01 -2.311361793649844e-01  5.959241314750194e-01 0 0 0 -2.172784806197239e-01  2.195245680012778e-01  3.426329908311874e-03 -6.104629199583755e-02 -3.330741880306332e-01  9.408970788809988e-01  6.900902440753876e-03 -2.139849935439763e-01 -8.240538769711415e-03 -2.743738389092834e-01
16 3 4  5.018643667823817e-01 -5.586841875841202e-01  1.643877632225283e-01 0 0 0 -2.011005994161250e-01 -5.995362607098796e-02 -3.196714021327400e-02 -7.436366364675658e-02 -1.730304562430158e-03  9.948993941706503e-01 -6.813403741175540e-02  1.751615148998275e-02 -3.244471122374079e-01  8.427504554185469e-02
ITEM: TIMESTEP
4000
ITEM: NUMBER OF ATOMS
16
ITEM: BOX BOUNDS pp pp pp
-2.0000000000000000e+01 2.0000000000000000e+01
-2.0000000000000000e+01 2.0000000000000000e+01
-2.0000000000000000e+01 2.0000000000000000e+01
ITEM: ATOMS id mol type x y z ix iy iz vx vy vz c_quat[1] c_quat[2] c_quat[3] c_quat[4] angmomx angmomy angmomz
1 1 1 -6.110051057843933e-01 -6.570915382537521e-01  3.695351198016503e-01 0 0 0  6.134015413841106e-02 -1.891509644402733e-04  1.869776681037526e-01  9.961520595214152e-01 -4.269911690320469e-02  1.660420219852496e-03 -7.651864303307590e-02  2.463447866945202e-01 -1.767523328287557e-01 -2.691641785317935e-01
2 1 2 -4.541015334602072e-01 -9.923027192074905e-01  7.187937623007237e-01 0 0 0 -3.130966348676690e-02  2.642526550769422e-01 -1.543682057797511e-01  9.370469868933394e-01  1.091099156617206e-01  6.297907029596736e-02  3.256863634895721e-01 -2.228868068115404e-02 -1.197007132463796e-01  1.459282996493599e-02
3 1 3 -1.076107786975982e-01 -1.244807129978660e+00  1.068474390000812e+00 0 0 0 -2.312190578177293e-01 -1.155170037783837e-01  1.039487282869830e-02  8.028585013250794e-01  1.444878376708359e-01  1.781395432918975e-01  5.502797422502559e-01  8.880917766005963e-02 -1.426014204924895e-01 -1.802422230442959e-01
4 1 4  2.846105141872322e-01 -1.279767530752828e+00  1.426229726603157e+00 0 0 0 -2.183949164831309e-01 -5.254336708880317e-01 -1.576381845807159e-02  5.532726007845478e-01  1.498836383975918e-01  1.161933608812027e-01  8.111247912922729e-01 -2.610871695285993e-01  2.636428198714824e-01  3.557038859574065e-01
5 1 1  6.221928656890725e-01 -1.027294522369647e+00  1.763557483860897e+00 0 0 0 -1.628316059186888e-01 -2.173692704785862e-01 -1.330335355088343e-01  2.477634375827437e-01  1.172060143825837e-01  8.272736189607305e-02  9.581399755690437e-01  5.459964502952808e-02 -7.389032312082158e-02  1.185025000521932e-01
6 1 2  7.880065744921296e-01 -6.696633168988733e-01  2.160097796624427e+00 0 0 0 -6.045579929805794e-02  1.530232042314646e-01  1.574736032674760e-01 -4.360371153335384e-02  5.906614887921977e-02  2.002016375243862e-02  9.971003457227460e-01  6.988185957040143e-02 -5.070878335715663e-01  1.345943063820640e-01
7 1 3  7.131278495515794e-01 -4.031056435368470e-01  2.564674451884144e+00 0 0 0  2.594895801455768e-02 -1.780336734896359e-02 -1.013052285627994e-01 -4.509619151795057e-01  1.091780629990660e-01 -7.491764424768234e-02  8.826668953788751e-01  3.170492726713632e-01  3.631148680064910e-01 -1.294070090752836e-01
8 1 4  4.853993458865205e-01 -3.049495911237123e-01  3.072287041542157e+00 0 0 0  4.043952626407665e-01 -7.212775606018824e-02  1.109790734904249e-01  7.641308728189142e-01 -1.029269557744581e-02  4.127450717266322e-02 -6.436571173228866e-01  5.563313130239215e-02  1.030443297574098e-01 -1.275134599611732e-01
9 2 1  4.069279166313962e-01 -1.442152694512057e+00  3.058663204339780e+00 0 0 0  1.664969019288469e-02  3.998499640998354e-02 -3.247764014563275e-02 -2.325860355018832e-01  6.834380759932313e-01  6.800645701739048e-01 -1.277822865907839e-01  1.006203679636873e-02 -9.435370825072349e-03  1.663524491781145e-01
10 2 2 -2.395303231294577e-02 -1.289599528922260e+00  2.719246536823366e+00 0 0 0  2.087220620822810e-01  1.459375628016452e-01 -5.611752869645597e-04 -2.325988201247749e-01  8.840656122829939e-01  3.868891647384565e-01 -1.210064306689418e-01 -1.882041486554698e-01 -4.782216804660381e-01 -2.326401913187933e-01
11 2 3 -3.300140699485041e-01 -9.150479954867592e-01  2.426188666122631e+00 0 0 0 -3.410713644646233e-01 -1.410278570452162e-01  3.182111059549250e-01 -6.860516763208656e-02  9.808219175228005e-01  1.474315250834276e-01 -1.074506514295977e-01 -3.076457431224635e-01 -4.779371593742318e-01  2.006761260473602e-02
12 2 4 -3.939976930560896e-01 -4.793084366952058e-01  2.007478473280027e+00 0 0 0 -1.114834110729798e-01  1.424469338962886e-01  5.729148232283200e-02 -1.814236820883133e-02  9.643275752641349e-01 -2.413386210462506e-01 -1.072327004810748e-01 -2.601901480900669e-01  1.059184907318571e-01  9.441368697939719e-02
13 3 1 -6.753480843473270e-02 -7.613420088638279e-02  1.563807746685434e+00 0 0 0 -1.150567916697806e-01 -1.135079654394555e-01  9.113567646406961e-02 -1.622671202863882e-02  7.942720607588294e-01 -6.063172813227947e-01 -3.532621808228354e-02 -2.254735841852044e-01  2.741313782119924e-01  9.489304209468810e-02
14 3 2  1.809759084818019e-01 -7.006137874262919e-02  1.019185141745254e+00 0 0 0  5.328633606855322e-02 -3.759642954362241e-01 -3.780824839598194e-02  5.232024147207650e-02  6.394410155133219e-01 -7.669134503691777e-01  1.488420822341644e-02 -1.116201029569409e-01  3.774377862137937e-02  2.361503135674710e-01
15 3 3  4.428514756461865e-01 -2.289744285697637e-01  5.959439445925199e-01 0 0 0 -2.216999435135592e-01  2.126442315649890e-01  4.378212615408485e-04 -6.171969214793417e-02 -3.299550940513607e-01  9.419652721899803e-01  4.662778010848207e-03 -2.258299822726358e-01 -1.894064180204588e-02 -2.735707133352161e-01
16 3 4  4.998396991452445e-01 -5.592463098942133e-01  1.640988817128921e-01 0 0 0 -2.038078717228249e-01 -5.244352297289573e-02 -2.572706621430678e-02 -7.061561092722501e-02 -2.402096336975683e-03  9.951793890000873e-01 -6.801212491883950e-02  1.668347114075224e-02 -3.200562878633045e-01  7.474659922999809e-02
ITEM: TIMESTEP
5000
ITEM: NUMBER OF ATOMS
16
ITEM: BOX BOUNDS pp pp pp
-2.0000000000000000e+01 2.0000000000000000e+01
-2.0000000000000000e+01 2.0000000000000000e+01
-2.0000000000000000e+01 2.0000000000000000e+01
ITEM: ATOMS id mol type x y z ix iy iz vx vy vz c_quat[1] c_quat[2] c_quat[3] c_quat[4] angmomx angmomy angmomz
1 1 1 -6.103912783558449e-01 -6.571084792236874e-01  3.712908194906319e-01 0 0 0  6.129230191032859e-02 -3.021228993341077e-03  1.636591061027811e-01  9.960329051093828e-01 -3.963926973623609e-02  2.042447933377123e-04 -7.966893069575846e-02  2.630499121748076e-01 -1.394467971105558e-01 -2.685777741706180e-01
2 1 2 -4.543926369401632e-01 -9.896848337340849e-01  7.173366941364634e-01 0 0 0 -2.674889647804917e-02  2.590930539145256e-01 -1.364630100417946e-01  9.371227923163400e-01  1.084469986098294e-01  6.173036798604465e-02  3.259286459979440e-01 -1.338359582542853e-02 -1.274595557688846e-01  3.912455930609951e-03
3 1 3 -1.099530116912497e-01 -1.245937818961224e+00  1.068662426776182e+00 0 0 0 -2.372333444914987e-01 -1.106549632116634e-01  2.712101407349097e-02  8.041494472423403e-01  1.448534014404711e-01  1.757828064581790e-01  5.490551552846500e-01  1.173319891845556e-01 -1.608689242962667e-01 -1.849147425547266e-01
4 1 4  2.824541935964255e-01 -1.284968071696461e+00  1.426012515871182e+00 0 0 0 -2.128555139628297e-01 -5.145676640738325e-01 -2.762719492616944e-02  5.500652998612499e-01  1.501062166785395e-01  1.209859855990687e-01  8.125630319499102e-01 -2.810518306290790e-01  2.566051169983778e-01  3.558825324621710e-01
5 1 1  6.205658945330370e-01 -1.029446547881186e+00  1.762231069153280e+00 0 0 0 -1.625210205305245e-01 -2.129412013485928e-01 -1.322474893435814e-01  2.464684883807034e-01  1.164489548009193e-01  8.211456645761389e-02  9.586188622891700e-01  4.812017372104167e-02 -7.002581002324684e-02  1.166759057014944e-01
6 1 2  7.873844045048948e-01 -6.681959716425148e-01  2.161683291723957e+00 0 0 0 -6.399000840862673e-02  1.402647642815734e-01  1.595568156099885e-01 -4.511531749015298e-02  5.331498306181363e-02  1.959816231707966e-02  9.973655461979196e-01  6.340980657468513e-02 -4.849109944425547e-01  1.411969289614345e-01
7 1 3  7.133540125206217e-01 -4.032528245052482e-01  2.563716618151140e+00 0 0 0  1.926725460777339e-02 -1.156997979087174e-02 -9.021613811639956e-02 -4.497458705510953e-01  1.110344222568035e-01 -8.008357671764696e-02  8.826021922341029e-01  3.086400781091665e-01  3.445362814750258e-01 -1.262311989721585e-01
8 1 4  4.894728870145073e-01 -3.056990880795070e-01  3.073329881608949e+00 0 0 0  4.102625591427880e-01 -7.776714098798498e-02  9.757132602257798e-02  7.631417828432548e-01 -1.051225923842499e-02  4.265154543392882e-02 -6.447363471657389e-01  6.002141981861750e-02  1.099394745080423e-01 -1.277559148445087e-01
9 2 1  4.070539494052703e-01 -1.441753849880271e+00  3.058284105759018e+00 0 0 0  8.568988362658729e-03  3.979562721338102e-02 -4.330331757157737e-02 -2.323133026582414e-01  6.821293037793074e-01  6.814146884695337e-01 -1.280787440270479e-01  5.506065111860066e-03 -1.323476828867217e-02  1.671532965122431e-01
10 2 2 -2.185236749200214e-02 -1.288100434781246e+00  2.719298538495252e+00 0 0 0  2.113346816201811e-01  1.538177075584565e-01  1.104480612888743e-02 -2.288366384170640e-01  8.862109298776408e-01  3.856416393466734e-01 -1.163808690695998e-01 -1.924045027660513e-01 -4.814926095101812e-01 -2.116960543939192e-01