LAMMPS data file via write_data, version 2 Aug 2023, timestep = 250000, units = lj

499 atoms
1 atom types
498 bonds
1 bond types
249 ellipsoids

-50 50 xlo xhi
-50 50 ylo yhi
-50 50 zlo zhi

Masses

1 1

Atoms # hybrid/kk

351 1 -21.730777010770396 13.332376509773459 -19.47081877259595 1 1 238.7324039657 0 0 0
354 1 -23.202598945789617 14.506544656648822 -18.74882381861943 1 1 238.7324039657 0 0 0
352 1 -22.433079612647767 13.457926848482705 -20.09264671001235 1 1 238.7324039657 0 0 0
353 1 -22.647922864890962 14.159424261344002 -19.489430843325557 1 1 238.7324039657 0 0 0
357 1 -24.1992799473071 12.781366322968346 -17.006734013328984 1 1 238.7324039657 0 0 0
258 1 -17.190611203746364 11.146948435783594 -17.281901968403524 1 1 238.7324039657 0 0 0
259 1 -17.440951929411273 10.25756062771622 -16.876146727839618 1 1 238.7324039657 0 0 0
256 1 -15.555965683532353 10.630717902618333 -17.27807712737437 1 1 238.7324039657 0 0 0
257 1 -16.442360320903664 10.76626291034211 -17.73792377291971 1 1 238.7324039657 0 0 0
356 1 -24.137657396848773 13.343516258590434 -17.80237209300499 1 1 238.7324039657 0 0 0
355 1 -23.974187213924026 14.261061345865798 -18.148849690444443 1 1 238.7324039657 0 0 0
350 1 -20.957102951528988 13.7445804841362 -18.946034046285906 1 1 238.7324039657 0 0 0
349 1 -21.51179109459712 14.364481396287022 -18.39809603156484 1 1 238.7324039657 0 0 0
348 1 -21.68020658818095 15.040632379074518 -17.709492540460865 1 1 238.7324039657 0 0 0
347 1 -20.808380983894846 14.98150751912914 -17.31693656163958 1 1 238.7324039657 0 0 0
346 1 -20.1455660284426 15.385729168835473 -16.647350179854072 1 1 238.7324039657 0 0 0
345 1 -19.287991705597776 15.71385649586742 -17.07236730535666 1 1 238.7324039657 0 0 0
344 1 -18.430648827836393 15.285347944205324 -16.822354832429625 1 1 238.7324039657 0 0 0
230 1 -16.186773796191083 0.3606676885378219 -15.11757831279646 1 0 238.7324039657 0 0 0
233 1 -15.010476017083898 1.8821400428515775 -15.218514170574954 1 0 238.7324039657 0 0 0
231 1 -15.513349281407805 0.27281038967679455 -14.461845269399893 1 0 238.7324039657 0 0 0
232 1 -15.602700288585362 1.1666957081188296 -14.933156625085852 1 0 238.7324039657 0 0 0
261 1 -18.70635943639523 10.3973757521258 -15.803000109089218 1 1 238.7324039657 0 0 0
260 1 -18.142496150937838 9.985790879769416 -16.398219732573917 1 1 238.7324039657 0 0 0
360 1 -25.33402000166905 11.502320117440938 -15.018814885768599 1 1 238.7324039657 0 0 0
358 1 -24.509081481580843 12.130113257399826 -16.359663418293877 1 1 238.7324039657 0 0 0
359 1 -24.519332035897893 11.716754981179422 -15.43288448014966 1 1 238.7324039657 0 0 0
262 1 -18.277511796163036 10.954142749353325 -15.171352807496909 1 1 238.7324039657 0 0 0
341 1 -16.10584905875282 14.427477554820323 -16.147689851061177 1 1 238.7324039657 0 0 0
340 1 -15.383646467118153 13.783030694444335 -16.26380549505847 1 1 238.7324039657 0 0 0
343 1 -17.5146564443709 15.253424717402352 -16.697665988025506 1 1 238.7324039657 0 0 0
342 1 -17.046029848010406 14.670863700733932 -16.12827116015916 1 1 238.7324039657 0 0 0
306 1 -17.336809242479244 21.43616790190925 -15.038435196998863 1 1 238.7324039657 0 0 0
229 1 -16.545847124313106 -0.22552309722768246 -14.512680985915367 1 0 238.7324039657 0 0 0
228 1 -16.182962139769483 -0.6992613032245004 -13.75520876275861 1 0 238.7324039657 0 0 0
227 1 -15.724025340160006 -0.6344429462932916 -13.004992176248225 1 0 238.7324039657 0 0 0
363 1 -26.22471225506731 10.10755784385114 -12.833967227455153 1 1 238.7324039657 0 0 0
362 1 -25.76797940977745 10.802916934960058 -13.407569291866569 1 1 238.7324039657 0 0 0
361 1 -25.75803762030576 11.346270983826148 -14.194455792392466 1 1 238.7324039657 0 0 0
264 1 -18.34052992971944 11.657159495293492 -13.45551643285589 1 1 238.7324039657 0 0 0
263 1 -18.4847101817727 11.353724027543317 -14.334047754920665 1 1 238.7324039657 0 0 0
309 1 -15.897086668746363 20.570019085421993 -13.363912660050437 1 1 238.7324039657 0 0 0
304 1 -18.503604572035798 21.292731017591166 -13.62986241228597 1 1 238.7324039657 0 0 0
303 1 -18.417063040527868 20.61364003812393 -12.938241234085135 1 1 238.7324039657 0 0 0
305 1 -17.712552662571234 21.299294114986857 -14.173979611168628 1 1 238.7324039657 0 0 0
307 1 -16.45619987082957 21.195689489515953 -14.86192750131514 1 1 238.7324039657 0 0 0
308 1 -15.691150863012256 20.943825074027238 -14.246945323819514 1 1 238.7324039657 0 0 0
224 1 -15.396048725936046 -0.5663052846906342 -10.463879636057973 1 0 238.7324039657 0 0 0
226 1 -15.29776801351122 -0.9356750398684488 -12.140470602615547 1 0 238.7324039657 0 0 0
225 1 -15.173997814072365 -1.0554896068620467 -11.264457485034434 1 0 238.7324039657 0 0 0
382 1 -22.793504157197958 6.659467484118419 -10.894178932846831 1 1 238.7324039657 0 0 0
381 1 -22.005066374139012 7.058340208388626 -11.196299589204626 1 1 238.7324039657 0 0 0
367 1 -26.238235739190582 9.08256413815439 -10.537516525190263 1 1 238.7324039657 0 0 0
366 1 -25.421944066126333 9.388170822970176 -11.08110636274453 1 1 238.7324039657 0 0 0
365 1 -25.126477253874015 9.942802491907461 -11.872520018333264 1 1 238.7324039657 0 0 0
364 1 -26.083849986906497 9.700434738730438 -11.9980335108212 1 1 238.7324039657 0 0 0
380 1 -21.236812400992388 7.739296023779598 -11.278633088244879 1 1 238.7324039657 0 0 0
376 1 -22.015265164077306 9.165670533678869 -10.240413455024873 1 1 238.7324039657 0 0 0
265 1 -18.073000455916464 11.680564989958636 -12.600983508800553 1 1 238.7324039657 0 0 0
266 1 -17.433874789089344 11.986758110323523 -11.891852906800953 1 1 238.7324039657 0 0 0
267 1 -17.494442058415743 12.62893873515346 -11.193576403425302 1 1 238.7324039657 0 0 0
301 1 -17.780913712480768 19.838310576928613 -11.40594320978922 1 1 238.7324039657 0 0 0
302 1 -18.289847749155136 20.137679956525403 -12.07233871769339 1 1 238.7324039657 0 0 0
300 1 -17.339782614215473 19.226488651538542 -10.785599790074395 1 1 238.7324039657 0 0 0
310 1 -15.891232965847133 20.81884753574687 -12.421590461138067 1 1 238.7324039657 0 0 0
223 1 -15.966983979521764 -0.05266078684893459 -9.849689602163956 1 0 238.7324039657 0 0 0
222 1 -15.560084405113074 -0.3775345509266268 -9.086552229122763 1 0 238.7324039657 0 0 0
221 1 -15.111923515718392 0.3555437473311315 -8.648185235868876 1 0 238.7324039657 0 0 0
368 1 -26.031420271126372 8.696542008638657 -9.622233490997697 1 1 238.7324039657 0 0 0
369 1 -25.57104414974073 8.07330749764797 -9.045695374218333 1 1 238.7324039657 0 0 0
383 1 -23.32749290523761 6.864906656179333 -10.108848340689073 1 1 238.7324039657 0 0 0
384 1 -23.770018107767985 7.73038343791249 -9.572966052300055 1 1 238.7324039657 0 0 0
370 1 -26.209748921162912 8.367201512994589 -8.33384044286472 1 1 238.7324039657 0 0 0
371 1 -26.082540339185602 9.304145035211967 -8.686254235936998 1 1 238.7324039657 0 0 0
372 1 -25.216730089925008 9.651922608969931 -8.504074652557732 1 1 238.7324039657 0 0 0
375 1 -22.8820741377907 9.098004704578424 -9.76869011818659 1 1 238.7324039657 0 0 0
385 1 -23.866183733274383 8.42937734260625 -8.918609344011543 1 1 238.7324039657 0 0 0
373 1 -24.33913597794633 9.851134251177617 -8.982406009453253 1 1 238.7324039657 0 0 0
386 1 -24.564372905388087 8.773598434148624 -8.211460167321075 1 1 238.7324039657 0 0 0
374 1 -23.66016460705627 9.657784014582015 -9.680517616364959 1 1 238.7324039657 0 0 0
378 1 -21.173293251641258 9.137220127962218 -9.840621480503945 1 1 238.7324039657 0 0 0
379 1 -21.070624506135758 8.335345942470875 -10.55596980076376 1 1 238.7324039657 0 0 0
377 1 -21.57385500221051 9.970328633665652 -10.023583113652656 1 1 238.7324039657 0 0 0
268 1 -16.73562153196883 12.592713347830191 -10.594141488127782 1 1 238.7324039657 0 0 0
269 1 -16.088443374939644 13.060728327187565 -10.041389508283046 1 1 238.7324039657 0 0 0
270 1 -15.756492827707941 13.1551220701182 -9.140708622659862 1 1 238.7324039657 0 0 0
284 1 -15.458048067766457 16.443390336053508 -8.227924065570786 1 1 238.7324039657 0 0 0
285 1 -15.394264707516104 16.597402191693348 -9.157057518494385 1 1 238.7324039657 0 0 0
286 1 -14.809520997713493 16.782184281201456 -9.921185362252691 1 1 238.7324039657 0 0 0
288 1 -15.216988556196405 18.05206755967995 -8.776187510532994 1 1 238.7324039657 0 0 0
299 1 -16.693575990422538 19.328482354502682 -10.098200926372005 1 1 238.7324039657 0 0 0
298 1 -16.12021974381401 19.593263558468614 -9.315014198472758 1 1 238.7324039657 0 0 0
297 1 -15.147012670335835 19.300208463600878 -9.190217491843965 1 1 238.7324039657 0 0 0
219 1 -15.884997857868886 0.5696279901364807 -6.976908859268163 1 0 238.7324039657 0 0 0
220 1 -15.607666663876834 0.7674418942558869 -7.955859946957577 1 0 238.7324039657 0 0 0
387 1 -25.287887478648198 9.036517164863753 -7.621709809165874 1 1 238.7324039657 0 0 0
388 1 -25.590374314089246 9.936156222293834 -7.554158309013945 1 1 238.7324039657 0 0 0
389 1 -25.885206690686374 10.68821214306939 -6.981290133977211 1 1 238.7324039657 0 0 0
390 1 -26.074155494625117 11.552555556238445 -6.713845018392742 1 1 238.7324039657 0 0 0
391 1 -26.345466521581617 12.482657246746903 -6.602577803192056 1 1 238.7324039657 0 0 0
271 1 -15.740086031900411 12.41064156901241 -8.602861511767987 1 1 238.7324039657 0 0 0
272 1 -15.515401412940362 12.600120532736478 -7.654917988683619 1 1 238.7324039657 0 0 0
273 1 -15.2926877611474 12.532938842861247 -6.688660790100007 1 1 238.7324039657 0 0 0
283 1 -15.15390389488751 15.54108634529624 -7.8880671307114625 1 1 238.7324039657 0 0 0
439 1 -23.399360841269942 13.133423521388725 8.876579450471619 1 1 238.7324039657 0 0 0
442 1 -23.903722594909805 11.580050518620524 10.0469599982666 1 1 238.7324039657 0 0 0
218 1 -15.980604298573361 0.3360865636653121 -5.961006443028228 1 0 238.7324039657 0 0 0
216 1 -15.154389528657354 0.47548191969400244 -4.9650689384178595 1 0 238.7324039657 0 0 0
217 1 -15.715671686271074 1.127864245887057 -5.45986244914797 1 0 238.7324039657 0 0 0
392 1 -26.631085109013785 13.376872704859526 -6.388001965338384 1 1 238.7324039657 0 0 0
393 1 -26.831691728438233 14.238359315662898 -5.952226224928194 1 1 238.7324039657 0 0 0
438 1 -23.871148556137353 12.322423482782726 8.691385805159173 1 1 238.7324039657 0 0 0
274 1 -15.4385228373914 12.80337387912932 -5.758802196541761 1 1 238.7324039657 0 0 0
394 1 -27.00390403679124 15.211824195211323 -5.983221201124091 1 1 238.7324039657 0 0 0
395 1 -26.777835821775472 16.00055130727428 -5.579151130739572 1 1 238.7324039657 0 0 0
396 1 -26.964492010635233 16.928455913295878 -5.35140414078043 1 1 238.7324039657 0 0 0
397 1 -26.025323051759443 16.90005999158282 -5.0805622292468335 1 1 238.7324039657 0 0 0
499 1 -34.37655903307202 8.492038250019727 -2.660330506000801 1 1 238.7324039657 0 0 0
498 1 -33.486506967109655 8.721316119678404 -2.593802983032446 1 1 238.7324039657 0 0 0
403 1 -22.996828989037514 17.126182689055977 -2.080753482589587 1 1 238.7324039657 0 0 0
404 1 -22.005685696192334 16.930665745281637 -2.246077817100514 1 1 238.7324039657 0 0 0
405 1 -21.30189180953945 16.008327123677716 -2.333430328886152 1 1 238.7324039657 0 0 0
406 1 -20.795820793086786 14.950084848097251 -2.346352791013036 1 1 238.7324039657 0 0 0
398 1 -25.705859295762714 17.03671754504058 -4.134059977968503 1 1 238.7324039657 0 0 0
399 1 -25.333115250845015 17.408415876890707 -3.3172631183406804 1 1 238.7324039657 0 0 0
401 1 -24.132405466011747 18.144504863677682 -2.108288557991439 1 1 238.7324039657 0 0 0
400 1 -24.695879197519943 17.5856750083606 -2.68869548523525 1 1 238.7324039657 0 0 0
402 1 -23.21148037463746 17.999010880587402 -1.7591762396671584 1 1 238.7324039657 0 0 0
497 1 -32.90083264310785 9.081466337144564 -1.9668859265748484 1 1 238.7324039657 0 0 0
489 1 -34.182734949560114 12.420526294826029 0.4644337583844502 1 1 238.7324039657 0 0 0
490 1 -34.47481243391427 11.920664679836635 -0.22602621159120012 1 1 238.7324039657 0 0 0
496 1 -32.72667131761692 9.879628944764722 -1.480792273220875 1 1 238.7324039657 0 0 0
495 1 -32.18839857563871 10.692224796087691 -1.6569673776862335 1 1 238.7324039657 0 0 0
494 1 -32.47063765606515 11.549070467295817 -1.343994439512666 1 1 238.7324039657 0 0 0
411 1 -16.914957892934197 12.725755115564628 -0.9729163179830024 1 1 238.7324039657 0 0 0
410 1 -17.730480263858766 12.391096237191801 -1.4879921744027533 1 1 238.7324039657 0 0 0
412 1 -16.661845970813104 11.932175174693212 -0.4931217382966091 1 1 238.7324039657 0 0 0
491 1 -34.572373413034455 12.102700351958287 -1.0979388513290909 1 1 238.7324039657 0 0 0
492 1 -33.875150813402485 12.38709559392539 -1.7159832112764477 1 1 238.7324039657 0 0 0
493 1 -32.93271008216203 12.386253439688579 -1.706523234038228 1 1 238.7324039657 0 0 0
408 1 -18.9218682253179 13.74824438423063 -1.9790657931410425 1 1 238.7324039657 0 0 0
407 1 -19.772971559769488 14.318267282423085 -2.261546205622819 1 1 238.7324039657 0 0 0
409 1 -18.10933449645999 13.18564494110722 -1.992088812910425 1 1 238.7324039657 0 0 0
461 1 -30.123459347637212 3.529662557671681 1.9421954232462069 1 1 238.7324039657 0 0 0
464 1 -31.178976718310555 5.547325593846887 1.1023919845831496 1 1 238.7324039657 0 0 0
465 1 -31.891794191387607 6.3026989366612876 1.059825399673094 1 1 238.7324039657 0 0 0
463 1 -31.248935575558473 4.55009253206336 1.2464957746004648 1 1 238.7324039657 0 0 0
466 1 -32.74987388219287 6.676727497339869 0.8831926895783145 1 1 238.7324039657 0 0 0
468 1 -31.217487080472367 7.932148628117169 0.9122571519031175 1 1 238.7324039657 0 0 0
467 1 -31.980871251988148 7.381447313786816 0.7399840255402407 1 1 238.7324039657 0 0 0
469 1 -31.627133455932057 8.799201830309048 1.1813061659979405 1 1 238.7324039657 0 0 0
475 1 -30.471639086067295 12.562926412316125 2.4066626928008903 1 1 238.7324039657 0 0 0
413 1 -16.70753725561366 12.278379006227262 0.4623660116681927 1 1 238.7324039657 0 0 0
414 1 -16.555395624459095 12.078175812701698 1.5263001451824574 1 1 238.7324039657 0 0 0
488 1 -33.477470578108225 13.068922670438058 0.7345013235230011 1 1 238.7324039657 0 0 0
487 1 -32.52917883671507 13.07045506198908 1.2508147772009823 1 1 238.7324039657 0 0 0
485 1 -31.682809093036692 14.292201428135806 0.20131938074055547 1 1 238.7324039657 0 0 0
486 1 -32.12574145666213 13.523029915795595 0.5459317834726558 1 1 238.7324039657 0 0 0
482 1 -29.098381511347256 14.082958077418013 1.1334664881163858 1 1 238.7324039657 0 0 0
483 1 -30.05085427903094 14.414051575450365 1.3107962444582066 1 1 238.7324039657 0 0 0
484 1 -31.024848983016824 14.82510779293661 0.8379374558480595 1 1 238.7324039657 0 0 0
481 1 -28.598826745643322 13.737982636360858 1.9392328369965728 1 1 238.7324039657 0 0 0
462 1 -31.165894378369543 3.7362281602851826 1.8676782859991443 1 1 238.7324039657 0 0 0
460 1 -29.572319109045935 2.868419144498517 2.516676764270898 1 1 238.7324039657 0 0 0
459 1 -29.341937059122223 3.2480657017207557 3.4805901514077275 1 1 238.7324039657 0 0 0
458 1 -28.48046367275524 3.269688941021559 3.2399957746977797 1 1 238.7324039657 0 0 0
457 1 -28.63078469507259 3.739446746049279 4.058301757456785 1 1 238.7324039657 0 0 0
456 1 -29.12402962062776 4.553334901861587 3.8601354710636437 1 1 238.7324039657 0 0 0
470 1 -31.601532805910267 9.606518403702793 1.8072473590056781 1 1 238.7324039657 0 0 0
471 1 -32.10013214286857 10.158134228909457 2.468567232705677 1 1 238.7324039657 0 0 0
195 1 -16.816236984680877 8.718456358012507 3.433186070572417 1 0 238.7324039657 0 0 0
443 1 -24.55829444974828 10.898853767226148 10.141252810566234 1 1 238.7324039657 0 0 0
196 1 -16.12201198080557 8.323836306692808 3.8494045808547126 1 0 238.7324039657 0 0 0
172 1 -14.78908632669278 9.563707752691785 3.170150918621909 1 0 238.7324039657 0 0 0
194 1 -16.523969647465552 9.48978090524677 3.0545292813038474 1 0 238.7324039657 0 0 0
472 1 -31.691908950351294 11.11846018003324 2.7305416145652597 1 1 238.7324039657 0 0 0
473 1 -31.549030635449103 12.087002149907295 3.0001277698905318 1 1 238.7324039657 0 0 0
477 1 -29.54522084707664 11.38852872058663 2.7681130434216117 1 1 238.7324039657 0 0 0
476 1 -29.700867270321226 12.301844665929634 2.993398336137649 1 1 238.7324039657 0 0 0
478 1 -28.561671175849433 11.191840425190085 2.8621808654547336 1 1 238.7324039657 0 0 0
479 1 -28.453369257007996 12.125982637821057 2.7258307405829845 1 1 238.7324039657 0 0 0
178 1 -17.085659930669088 12.160465240186102 2.607280415771508 1 0 238.7324039657 0 0 0
193 1 -15.715495151682179 10.174521309193548 2.7199842582928846 1 0 238.7324039657 0 0 0
192 1 -16.27632802339078 10.894555336255646 3.0337552447552385 1 0 238.7324039657 0 0 0
177 1 -16.655026827620866 12.005493448524485 3.459355546770385 1 0 238.7324039657 0 0 0
191 1 -16.91847721845858 11.081291906731959 3.999047608143776 1 0 238.7324039657 0 0 0
474 1 -31.118700008057548 12.990457946384272 2.930896735069847 1 1 238.7324039657 0 0 0
480 1 -28.27817229537812 12.9844034969721 2.5470315950269726 1 1 238.7324039657 0 0 0
181 1 -18.92135328363133 13.300774527282703 3.0374357955437548 1 0 238.7324039657 0 0 0
182 1 -19.840386659048857 13.030397265704169 3.648175567895804 1 0 238.7324039657 0 0 0
183 1 -20.142962123287038 14.008371043115453 3.8351137815959624 1 0 238.7324039657 0 0 0
188 1 -18.15414357881903 12.793907723461146 4.135145006710452 1 0 238.7324039657 0 0 0
180 1 -18.088841056998366 13.76163856379195 2.5415153345514554 1 0 238.7324039657 0 0 0
179 1 -17.58472270679783 12.91379592154418 2.8474504354030565 1 0 238.7324039657 0 0 0
415 1 -15.872407315737512 12.668589168659608 2.067503595987766 1 1 238.7324039657 0 0 0
416 1 -15.371157941188256 13.286814492615635 2.7933870479103997 1 1 238.7324039657 0 0 0
417 1 -14.793119897364104 14.030830834045204 3.60611475277556 1 1 238.7324039657 0 0 0
418 1 -14.771649220533657 14.57270329694103 4.460477232603406 1 1 238.7324039657 0 0 0
455 1 -28.528260360481607 4.742803045651729 4.593078164074007 1 1 238.7324039657 0 0 0
454 1 -27.54153736563462 4.905308659859573 4.162470235194733 1 1 238.7324039657 0 0 0
453 1 -27.121964419783193 5.643071074908213 4.636018605590797 1 1 238.7324039657 0 0 0
451 1 -26.317692154942872 6.181960648745948 6.25782334964679 1 1 238.7324039657 0 0 0
452 1 -26.957418048440683 5.74196937064968 5.60630833484407 1 1 238.7324039657 0 0 0
197 1 -15.301003683110011 7.868526821965559 4.161305671771844 1 0 238.7324039657 0 0 0
428 1 -19.187567564831788 12.608645414891013 5.783281254401281 1 1 238.7324039657 0 0 0
190 1 -17.299636604408825 11.645371133167693 4.655453307033817 1 0 238.7324039657 0 0 0
189 1 -18.328581748974972 11.956907389333365 4.730861161445273 1 0 238.7324039657 0 0 0
174 1 -15.003664711313709 10.724589170951084 4.225638349304662 1 0 238.7324039657 0 0 0
175 1 -15.781928503276522 11.123798643742218 4.597623707088602 1 0 238.7324039657 0 0 0
176 1 -16.154567439789368 11.90918652248619 4.2023377421697985 1 0 238.7324039657 0 0 0
429 1 -19.92451365547951 13.014770910099234 6.1958134173460735 1 1 238.7324039657 0 0 0
186 1 -19.06815212616799 14.102983941392884 5.161081560736593 1 0 238.7324039657 0 0 0
185 1 -19.756298237603655 14.548510081696534 5.632280772003152 1 0 238.7324039657 0 0 0
187 1 -18.67347526749614 13.62573199818325 4.392390017456746 1 0 238.7324039657 0 0 0
440 1 -23.783379345510003 12.936553054806607 9.742584707611735 1 1 238.7324039657 0 0 0
421 1 -16.164156882373376 14.324406286480702 5.847777322605825 1 1 238.7324039657 0 0 0
184 1 -19.75042936471317 14.55359507373526 4.5761457968643215 1 0 238.7324039657 0 0 0
420 1 -15.205513975719487 14.062727334497426 5.737163325711487 1 1 238.7324039657 0 0 0
450 1 -26.01594862709638 6.151560280954032 7.176096910421109 1 1 238.7324039657 0 0 0
449 1 -25.751540715474576 6.716736887710614 7.80116612361268 1 1 238.7324039657 0 0 0
448 1 -25.496425146624855 7.076945821994371 8.695673012492136 1 1 238.7324039657 0 0 0
435 1 -22.75730675756854 10.545546947381274 7.860618448230605 1 1 238.7324039657 0 0 0
436 1 -23.526419004168652 11.157875626060589 8.138086390638957 1 1 238.7324039657 0 0 0
437 1 -23.74647621285336 11.973290188394696 7.7428320557093055 1 1 238.7324039657 0 0 0
432 1 -21.902617671935733 11.551759007829801 6.70884702586019 1 1 238.7324039657 0 0 0
434 1 -22.65572510445388 11.517505490441062 7.619696258315673 1 1 238.7324039657 0 0 0
433 1 -22.723307855756982 12.00192139623208 6.656053806419519 1 1 238.7324039657 0 0 0
431 1 -21.51244401211883 12.317225184064807 7.029124030879872 1 1 238.7324039657 0 0 0
430 1 -20.698429093317756 12.844438910487618 6.766245496678466 1 1 238.7324039657 0 0 0
427 1 -18.70494058062037 13.12844423957831 6.369652549942269 1 1 238.7324039657 0 0 0
425 1 -18.047888797494963 14.684397967972329 5.932882357091987 1 1 238.7324039657 0 0 0
426 1 -18.669144601236344 14.084328413012768 6.399283232782071 1 1 238.7324039657 0 0 0
424 1 -18.068247014607746 15.444821229101187 6.573417376716211 1 1 238.7324039657 0 0 0
423 1 -17.07525939439 15.603332019282458 6.282483292395593 1 1 238.7324039657 0 0 0
422 1 -16.54851687824878 15.210653588612374 5.603125576525037 1 1 238.7324039657 0 0 0
447 1 -24.871195054417527 7.43779594845801 9.305673738105366 1 1 238.7324039657 0 0 0
446 1 -24.760979357310358 8.416942331308748 9.53759542741504 1 1 238.7324039657 0 0 0
444 1 -24.069831824452756 10.136533686093808 9.750736163934402 1 1 238.7324039657 0 0 0
445 1 -24.497324040893623 9.41382508605384 9.332493801132806 1 1 238.7324039657 0 0 0
441 1 -23.260239755403042 12.323245649449724 10.491619592356193 1 1 238.7324039657 0 0 0
255 1 -14.756981063754962 10.351200245909622 -17.11916149741214 1 1 238.7324039657 0 0 0
311 1 -14.945068125367829 21.142412182598086 -12.369109554482048 1 1 238.7324039657 0 0 0
237 1 -12.16839282160603 4.214569211610434 -16.440615639121827 1 0 238.7324039657 0 0 0
239 1 -13.197383202011808 5.300702335555061 -17.495238563778294 1 0 238.7324039657 0 0 0
238 1 -12.703520402642718 4.840200646177902 -16.834729953739405 1 0 238.7324039657 0 0 0
240 1 -13.191516705536989 6.159216434165474 -17.812430945754844 1 0 238.7324039657 0 0 0
241 1 -12.72642405265343 7.003682208116738 -17.433784391186112 1 0 238.7324039657 0 0 0
242 1 -12.653917927281768 6.507129775102591 -16.589427572545244 1 0 238.7324039657 0 0 0
244 1 -11.650828989507577 7.279696008187541 -16.93583301836325 1 0 238.7324039657 0 0 0
245 1 -10.666972895137523 7.410907883434052 -17.203452737859205 1 0 238.7324039657 0 0 0
246 1 -9.876602929550874 7.377773868009005 -16.654983250124992 1 0 238.7324039657 0 0 0
125 1 -6.030768527089732 12.154187005892714 6.970964587906099 1 0 238.7324039657 0 0 0
254 1 -13.818432712632832 9.853008812151918 -17.149974942780812 1 1 238.7324039657 0 0 0
253 1 -12.878939977811443 9.561487749934846 -17.02063996946692 1 1 238.7324039657 0 0 0
252 1 -11.980700817641628 9.277247513553556 -16.88438622011015 1 1 238.7324039657 0 0 0
251 1 -11.680119849954949 8.429511488502532 -17.140647373705036 1 1 238.7324039657 0 0 0
236 1 -12.946193544873621 3.632204105002982 -16.17387770476909 1 0 238.7324039657 0 0 0
235 1 -13.737722605182793 3.4854902930276785 -15.451950235661242 1 0 238.7324039657 0 0 0
234 1 -14.19673939580104 2.6946435844667627 -15.177527926402787 1 0 238.7324039657 0 0 0
243 1 -12.273097314101516 7.3283294716131895 -16.24673051267235 1 0 238.7324039657 0 0 0
247 1 -9.176303834716967 7.890650700817655 -16.134298701609396 1 0 238.7324039657 0 0 0
250 1 -10.87079935081014 8.575284060504268 -16.746132621071474 1 0 238.7324039657 0 0 0
249 1 -9.86108354894247 8.675907830667331 -16.214891526085832 1 0 238.7324039657 0 0 0
248 1 -9.306885849518723 8.817367495507737 -15.418942907759334 1 0 238.7324039657 0 0 0
338 1 -13.681968707116376 13.512196580619968 -15.826009050757467 1 1 238.7324039657 0 0 0
337 1 -12.600669730852335 13.45881728808887 -15.638083620591992 1 1 238.7324039657 0 0 0
339 1 -14.42510539655277 13.828789516664575 -16.330058843970438 1 1 238.7324039657 0 0 0
336 1 -11.684130332824816 13.474775493964547 -15.386565020217295 1 1 238.7324039657 0 0 0
335 1 -10.905252361377231 13.269346255716217 -14.83320615712066 1 1 238.7324039657 0 0 0
333 1 -9.233528555123103 13.321515515236847 -14.521120091491225 1 1 238.7324039657 0 0 0
334 1 -9.975224019456318 12.872848380465253 -14.944219512019254 1 1 238.7324039657 0 0 0
332 1 -8.253112973081073 13.439380619514116 -14.40131311965199 1 1 238.7324039657 0 0 0
331 1 -7.41464802594011 13.90294228347591 -14.492142533149474 1 1 238.7324039657 0 0 0
328 1 -8.547754025893555 15.35786820286189 -12.887438839124913 1 1 238.7324039657 0 0 0
327 1 -9.42332866438385 15.540050979864116 -12.80306025303518 1 1 238.7324039657 0 0 0
326 1 -10.02765257800495 16.27782853226301 -12.611998267695988 1 1 238.7324039657 0 0 0
330 1 -7.454134867281179 14.552100339997997 -13.738827918010802 1 1 238.7324039657 0 0 0
329 1 -8.296583654532862 14.495979562658052 -13.244257203972927 1 1 238.7324039657 0 0 0
325 1 -9.819792373487866 16.89353228824772 -13.240680186072982 1 1 238.7324039657 0 0 0
324 1 -9.955191683990916 17.601804611028733 -13.916254701574905 1 1 238.7324039657 0 0 0
323 1 -9.957018491045435 18.56676580577974 -14.003388555573958 1 1 238.7324039657 0 0 0
322 1 -10.452528368270812 19.3107083280662 -13.7367923323858 1 1 238.7324039657 0 0 0
321 1 -10.538011074126837 20.24955228612416 -13.739936103674719 1 1 238.7324039657 0 0 0
320 1 -10.698100030533311 20.831821167959653 -12.951381235577644 1 1 238.7324039657 0 0 0
313 1 -13.53434762299484 20.60012229042743 -11.512036611192128 1 1 238.7324039657 0 0 0
124 1 -5.327313824639085 12.522537515611429 6.320161161570973 1 0 238.7324039657 0 0 0
312 1 -13.997930757363193 20.80478754961429 -12.31589578627562 1 1 238.7324039657 0 0 0
314 1 -12.733290745111423 20.859164924486475 -11.9491523921463 1 1 238.7324039657 0 0 0
315 1 -11.861444608361799 21.383983123710415 -11.711848757652659 1 1 238.7324039657 0 0 0
316 1 -11.122368177666312 21.99054368617885 -11.423496119159285 1 1 238.7324039657 0 0 0
317 1 -11.479575503440625 22.538046016500626 -12.178278738707844 1 1 238.7324039657 0 0 0
319 1 -10.986506456611972 20.81040993230749 -12.023211266241375 1 1 238.7324039657 0 0 0
318 1 -11.105226818583095 21.69246957367917 -12.454248988684265 1 1 238.7324039657 0 0 0
45 1 1.5744676886984645 4.214820133094997 -8.158623454435753 1 0 238.7324039657 0 0 0
42 1 -0.08895691591523372 5.306207892058167 -7.974092574880554 1 0 238.7324039657 0 0 0
97 1 1.6858923628891225 9.696736013409916 -8.575295368515588 1 0 238.7324039657 0 0 0
92 1 -0.7453827373307438 11.602710342713936 -8.127648310862106 1 0 238.7324039657 0 0 0
93 1 0.11485613385787177 11.568238610881494 -8.562450825503936 1 0 238.7324039657 0 0 0
94 1 0.7867912335879362 12.18055956056546 -9.018029389686784 1 0 238.7324039657 0 0 0
95 1 1.1420983979436368 11.241772318270167 -8.81342297999206 1 0 238.7324039657 0 0 0
96 1 1.8142720538659562 10.635111391989927 -8.806080217484729 1 0 238.7324039657 0 0 0
287 1 -14.637653629376011 17.33823124469363 -9.162546244511045 1 1 238.7324039657 0 0 0
296 1 -14.44177789180921 18.941719858457045 -8.55537714726866 1 1 238.7324039657 0 0 0
44 1 0.9180625795863612 3.7944999099246 -7.503032472261374 1 0 238.7324039657 0 0 0
50 1 3.752091886331034 2.4962588076685543 -6.675926708339651 1 0 238.7324039657 0 0 0
46 1 2.1185446046822163 3.6208386074376535 -7.663760076006794 1 0 238.7324039657 0 0 0
48 1 3.3868736256496046 3.591563499040519 -7.382330690336224 1 0 238.7324039657 0 0 0
49 1 2.900546523618397 2.8060121754350655 -6.853352136242187 1 0 238.7324039657 0 0 0
43 1 0.36709947881095073 4.438338780979333 -8.010714668084503 1 0 238.7324039657 0 0 0
41 1 0.7182710335836049 5.642208926041919 -7.596022994967506 1 0 238.7324039657 0 0 0
47 1 2.6990399377950465 4.309349636121467 -7.507234024259297 1 0 238.7324039657 0 0 0
37 1 -2.32842924152632 6.230604820846743 -6.558926863926328 1 0 238.7324039657 0 0 0
39 1 -1.0053134100321202 6.791870525429278 -7.304373097206971 1 0 238.7324039657 0 0 0
38 1 -1.8650449967009328 7.038873432489743 -6.899970960422813 1 0 238.7324039657 0 0 0
36 1 -1.4186347641076495 6.218007016561066 -6.209325596975611 1 0 238.7324039657 0 0 0
35 1 -0.45000865868691065 6.00532339935398 -6.524074007443399 1 0 238.7324039657 0 0 0
40 1 -0.039338400324706625 6.309857816586416 -7.4544795594402755 1 0 238.7324039657 0 0 0
98 1 2.4220502637270847 9.943765511158995 -8.098816908948994 1 0 238.7324039657 0 0 0
99 1 2.7596449302016044 10.298826229840223 -7.2771175075114005 1 0 238.7324039657 0 0 0
91 1 -1.2690769921255542 11.936558357182756 -7.48900325298802 1 0 238.7324039657 0 0 0
90 1 -2.274355743069365 11.776403381188386 -7.174651248209328 1 0 238.7324039657 0 0 0
100 1 3.3145198121712887 10.689186382017306 -6.493900478592884 1 0 238.7324039657 0 0 0
88 1 -2.23523593319718 13.388306693620105 -7.895862746019425 1 0 238.7324039657 0 0 0
87 1 -2.6593048694686017 13.979478174024253 -7.130850156821629 1 0 238.7324039657 0 0 0
86 1 -1.9695080588085425 14.348265784565312 -6.622549518181968 1 0 238.7324039657 0 0 0
89 1 -1.8985391129843887 12.699471600233807 -7.187924306438764 1 0 238.7324039657 0 0 0
293 1 -13.355752383123464 17.372976836161683 -8.169994876604582 1 1 238.7324039657 0 0 0
292 1 -12.953187235417326 17.43847010047071 -7.225936124978057 1 1 238.7324039657 0 0 0
280 1 -13.882953615375165 14.663870801285398 -5.884279993779206 1 1 238.7324039657 0 0 0
281 1 -14.283668514878443 15.047706785298526 -6.816743883881972 1 1 238.7324039657 0 0 0
294 1 -12.934028813376532 18.164128490673868 -7.905323581101365 1 1 238.7324039657 0 0 0
295 1 -13.710820327149523 18.37565432688307 -8.432066966807804 1 1 238.7324039657 0 0 0
290 1 -14.0969498290926 17.946904924122016 -7.167745617383711 1 1 238.7324039657 0 0 0
215 1 -14.449086152218715 0.09204465699616325 -4.513714301483798 1 0 238.7324039657 0 0 0
52 1 3.135689448433204 3.4490625022236507 -5.899583518916687 1 0 238.7324039657 0 0 0
51 1 3.7044854666487232 2.6717861026684098 -5.644001915892137 1 0 238.7324039657 0 0 0
34 1 -0.2681463603165131 5.845389572989154 -5.591060103823873 1 0 238.7324039657 0 0 0