LAMMPS data file via write_data, version 10 Dec 2025, timestep = 50000, units = lj

2845 atoms
2 atom types
891 bonds
1 bond types
2845 ellipsoids

0 50.39684199579493 xlo xhi
0 50.39684199579493 ylo yhi
0 50.39684199579493 zlo zhi

Masses

1 0
2 0

Atoms # hybrid/kk

33 1 21.602293446543477 11.447495155624932 1.1413175962927529 0 1 79.57747154594767 0 0 0
28 1 21.133216039338986 13.081748976593296 0.23202525595456758 0 1 79.57747154594767 0 0 0
4 1 13.632650715778013 14.538804903111794 0.28642588370309763 0 1 79.57747154594767 0 0 0
12 1 16.318823398050295 13.332927084881495 0.8143283158745879 0 1 79.57747154594767 0 0 0
20 1 18.782045166281833 13.390581760363064 0.8801505971702668 0 1 79.57747154594767 0 0 0
67 1 20.21443565961393 14.022688741502861 1.195507376337753 0 1 79.57747154594767 0 0 0
32 1 22.09917557400866 13.92039427736332 1.1507601711931632 0 1 79.57747154594767 0 0 0
36 1 23.27493845226201 14.200900640368923 0.9630875211083421 0 1 79.57747154594767 0 0 0
2281 1 24.342845080693227 14.549655969599142 0.0811426809940023 0 1 79.57747154594767 0 0 1
51 1 14.350388156082722 15.769228360068098 0.5043657770398261 0 1 79.57747154594767 0 0 0
2287 1 17.166881872226856 14.644414343858381 0.020381831689460044 0 1 79.57747154594767 0 0 1
59 1 17.361928407065996 15.265037393222384 1.2129850233450128 0 1 79.57747154594767 0 0 0
70 1 21.045261221761347 15.631766456465353 0.32715096789890746 0 1 79.57747154594767 0 0 0
75 1 23.823514906630823 15.283113036293699 0.9625151547814632 0 1 79.57747154594767 0 0 0
46 1 13.456887027225832 16.515308969140865 0.887599420531761 0 1 79.57747154594767 0 0 0
55 1 15.43213324249998 16.127742589545473 0.49691450485045985 0 1 79.57747154594767 0 0 0
54 1 16.80273659295614 16.325568951063932 0.7666891333776045 0 1 79.57747154594767 0 0 0
62 1 18.571290189514553 16.136523640224183 1.090642466142819 0 1 79.57747154594767 0 0 0
109 1 20.514197853108968 16.81223255482273 0.5722490026249596 0 1 79.57747154594767 0 0 0
74 1 21.68594896735108 17.056077102465263 0.7099833527843669 0 1 79.57747154594767 0 0 0
78 1 24.28192738967632 16.73597166203705 0.6287440082831948 0 1 79.57747154594767 0 0 0
93 1 15.803317478397371 17.674033095290298 0.7706727247509123 0 1 79.57747154594767 0 0 0
101 1 16.915394196423726 17.484037313984427 0.5894275286699623 0 1 79.57747154594767 0 0 0
105 1 18.042787759374207 18.12921027029116 0.9819227321900537 0 1 79.57747154594767 0 0 0
104 1 19.171316908762698 17.47786988139872 0.354680743036111 0 1 79.57747154594767 0 0 0
117 1 23.394184836703314 18.242567420732275 0.5066113627167228 0 1 79.57747154594767 0 0 0
88 1 13.236934928713305 19.26908607468376 0.8012917402965735 0 1 79.57747154594767 0 0 0
97 1 15.620096719209807 19.03460076213384 1.2608284336917783 0 1 79.57747154594767 0 0 0
96 1 16.059222765786018 19.49423937582851 0.3727081893637799 0 1 79.57747154594767 0 0 0
100 1 17.11750323947405 19.49724044654594 0.9678713350902757 0 1 79.57747154594767 0 0 0
108 1 19.77725300192905 18.887533203509893 0.6937770364003693 0 1 79.57747154594767 0 0 0
113 1 20.942254579990124 18.69720866608784 0.6912805045078968 0 1 79.57747154594767 0 0 0
112 1 21.908545729780506 19.545787023952556 0.3794900432048565 0 1 79.57747154594767 0 0 0
130 1 13.493203539728285 20.76748113109149 0.05638105069044927 0 1 79.57747154594767 0 0 0
135 1 15.01077000238402 19.99337575508299 0.5854480473346153 0 1 79.57747154594767 0 0 0
143 1 17.69791104679761 20.8967404625284 0.8389591863034777 0 1 79.57747154594767 0 0 0
146 1 18.668842786450313 20.90971232155797 0.30018217848142703 0 1 79.57747154594767 0 0 0
151 1 20.293175430984107 19.896324436602587 0.8883347664207004 0 1 79.57747154594767 0 0 0
154 1 21.3296117206398 21.023590714156814 0.646690474832077 0 1 79.57747154594767 0 0 0
159 1 22.51331318429925 20.539857666251063 0.8595196342686474 0 1 79.57747154594767 0 0 0
167 1 26.1317399037555 20.390305407169475 0.9307644746186021 0 1 79.57747154594767 0 0 0
134 1 14.447706491792147 21.454979623775394 0.8240976368088074 0 1 79.57747154594767 0 0 0
177 1 15.441167285346863 22.28323787716707 0.6112519017818898 0 1 79.57747154594767 0 0 0
138 1 16.187993400095902 21.4330360111529 0.6745037614845238 0 1 79.57747154594767 0 0 0
185 1 17.990420886704932 21.95981954183696 0.33700113200890575 0 1 79.57747154594767 0 0 0
162 1 23.4363582949548 21.55960158162311 0.5811630619437159 0 1 79.57747154594767 0 0 0
201 1 22.884498448286458 22.513291661615096 0.6377980491169366 0 1 79.57747154594767 0 0 0
193 1 19.463002852163797 22.822347170297697 1.111049857808892 0 1 79.57747154594767 0 0 0
196 1 21.493338712516564 23.268408621847097 0.8245473695084888 0 1 79.57747154594767 0 0 0
180 1 16.00956873853452 24.536843702244543 0.1062755928730914 0 1 79.57747154594767 0 0 0
188 1 19.261939087561945 23.87934673244073 0.5087990208665065 0 1 79.57747154594767 0 0 0
204 1 24.33259252702326 24.080932480817722 0.7693479895056283 0 1 79.57747154594767 0 0 0
217 1 20.451494330064698 25.47731789349772 1.037598817803722 0 1 79.57747154594767 0 0 0
1067 1 43.55110312696055 45.77500426347838 50.167535865537396 0 1 79.57747154594767 -1 0 -1
9 1 14.660341934011887 11.305697478859377 1.4436623613000914 0 1 79.57747154594767 0 0 0
17 1 17.413618923005437 11.368928548026805 1.9435872282926936 0 1 79.57747154594767 0 0 0
25 1 18.57663200691362 11.028407747868934 2.439111320903132 0 1 79.57747154594767 0 0 0
29 1 21.364918465835856 11.488287272341298 2.3402326386503116 0 1 79.57747154594767 0 0 0
37 1 23.984412133612285 11.538944902848282 1.9269345763626393 0 1 79.57747154594767 0 0 0
1 1 11.87220290347027 12.212067800629262 2.1300042607934606 0 1 79.57747154594767 0 0 0
10 1 15.415349056531875 12.881915844754573 2.5361038396723488 0 1 79.57747154594767 0 0 0
13 1 16.31711893969753 11.950995057740833 2.055151526883394 0 1 79.57747154594767 0 0 0
21 1 18.871624078794117 12.44643259338674 1.9932142505015915 0 1 79.57747154594767 0 0 0
43 1 11.548761621143386 14.114264646373158 2.1512777787249844 0 1 79.57747154594767 0 0 0
16 1 16.5424438777536 14.190960004113876 1.5043449268944065 0 1 79.57747154594767 0 0 0
24 1 19.748755117653246 14.565038404053128 2.0035319324452034 0 1 79.57747154594767 0 0 0
69 1 21.55998982497113 14.32240906345056 2.4451017705850053 0 1 79.57747154594767 0 0 0
47 1 11.774600403542209 15.42521654488964 2.290859110422614 0 1 79.57747154594767 0 0 0
8 1 14.467305246181954 15.32257760991692 1.990091571265861 0 1 79.57747154594767 0 0 0
53 1 15.685964805874448 15.08250515627131 1.894625841916075 0 1 79.57747154594767 0 0 0
60 1 18.34330332033912 15.53527224461238 2.389068210340085 0 1 79.57747154594767 0 0 0
57 1 17.483369086528473 14.67685493638701 2.2937073871396914 0 1 79.57747154594767 0 0 0
63 1 18.891485981634798 14.979963976714464 1.4264692921695044 0 1 79.57747154594767 0 0 0
71 1 20.756320266676674 15.179758636494162 1.5527960200245698 0 1 79.57747154594767 0 0 0
40 1 25.179765821239673 14.604033764951485 2.3070480954931547 0 1 79.57747154594767 0 0 0
85 1 11.92068056302571 16.83736641655457 2.282324983914721 0 1 79.57747154594767 0 0 0
52 1 15.554553572166592 16.451949303683488 2.0666526193934667 0 1 79.57747154594767 0 0 0
58 1 17.457298925200853 16.2399168591837 1.7243825612135923 0 1 79.57747154594767 0 0 0
68 1 20.50063887706139 16.59850352447127 1.6603995112390844 0 1 79.57747154594767 0 0 0
76 1 22.224164265590403 17.235620024547913 2.350140964715909 0 1 79.57747154594767 0 0 0
79 1 23.743689485363372 16.603228337016052 2.2370922701793297 0 1 79.57747154594767 0 0 0
83 1 25.44838393769891 16.475390973352905 1.3574137096090906 0 1 79.57747154594767 0 0 0
89 1 12.251374562874895 18.431090940603962 1.9478612599582803 0 1 79.57747154594767 0 0 0
50 1 14.50135562970025 17.283316568015923 1.6949894540104675 0 1 79.57747154594767 0 0 0
95 1 15.995016481400285 17.72120991364242 2.1025329851790344 0 1 79.57747154594767 0 0 0
102 1 17.1337316267727 18.0908275148695 2.101744361837975 0 1 79.57747154594767 0 0 0
103 1 18.484035190756295 18.29337720796682 2.0867532968131743 0 1 79.57747154594767 0 0 0
66 1 19.181135984403557 17.39118654807412 1.8870634093372054 0 1 79.57747154594767 0 0 0
110 1 20.40076607340605 18.05717932749087 1.743751489587543 0 1 79.57747154594767 0 0 0
111 1 21.636241798819032 18.170377691518556 1.6222598712089717 0 1 79.57747154594767 0 0 0
125 1 26.198101897161433 17.987908822419943 1.4569355548820482 0 1 79.57747154594767 0 0 0
124 1 25.480712854324707 18.30453524232589 2.3919764936290964 0 1 79.57747154594767 0 0 0
127 1 11.29316753263228 19.446202053490914 1.6866673811209498 0 1 79.57747154594767 0 0 0
129 1 12.702335232690748 19.619907632204878 2.610858611036228 0 1 79.57747154594767 0 0 0
92 1 13.8920202452333 19.554217202820684 1.643598724524568 0 1 79.57747154594767 0 0 0
137 1 16.3898208115965 19.354111974263343 2.1143990875971617 0 1 79.57747154594767 0 0 0
106 1 17.878095955169726 19.537197647823703 2.065969041557062 0 1 79.57747154594767 0 0 0
145 1 19.575067306475596 19.645364784731225 1.6696052487059458 0 1 79.57747154594767 0 0 0
116 1 21.8639262974098 19.418165490119126 1.4838857628315951 0 1 79.57747154594767 0 0 0
153 1 21.279499703730878 19.453274159877644 2.472487767845092 0 1 79.57747154594767 0 0 0
118 1 23.02013823545828 19.488068295678364 2.521952533607517 0 1 79.57747154594767 0 0 0
121 1 24.35656655512006 18.94694476433816 1.3653563577144443 0 1 79.57747154594767 0 0 0
136 1 13.650876720974075 20.699366282453667 2.2775746617065926 0 1 79.57747154594767 0 0 0
144 1 17.275933355358394 20.899229951162646 2.50697743368138 0 1 79.57747154594767 0 0 0
147 1 18.799293751414805 20.767382830905547 1.4177738538508362 0 1 79.57747154594767 0 0 0
155 1 20.648102559080364 20.502863087764442 1.8062735718309724 0 1 79.57747154594767 0 0 0
163 1 23.20656390024818 21.147405064822507 1.7312952625545477 0 1 79.57747154594767 0 0 0
161 1 25.503283827941917 20.641048640943808 2.5345322752798203 0 1 79.57747154594767 0 0 0
169 1 11.636276315643363 21.57849993232412 1.6955688227068215 0 1 79.57747154594767 0 0 0
131 1 12.379778981548414 21.61876033217635 2.6001940529984515 0 1 79.57747154594767 0 0 0
171 1 13.769630021125396 22.06087879261632 2.2728056131271086 0 1 79.57747154594767 0 0 0
139 1 15.743315110067162 21.49382704203105 1.6686697680793845 0 1 79.57747154594767 0 0 0
142 1 16.785912312793677 22.146592692197494 1.407672962025878 0 1 79.57747154594767 0 0 0
150 1 19.58147080922968 21.64848144910216 1.3988418785544778 0 1 79.57747154594767 0 0 0
152 1 19.88631166362371 21.330856474730155 2.569253566405515 0 1 79.57747154594767 0 0 0
158 1 20.991828746923346 22.070478717675126 1.34953580417583 0 1 79.57747154594767 0 0 0
160 1 21.958820356519496 21.742634832400412 2.3677311503730167 0 1 79.57747154594767 0 0 0
166 1 25.629379514892072 21.286182348935466 1.482970251176716 0 1 79.57747154594767 0 0 0
173 1 12.377969177931037 23.298582083269014 2.5392250740884506 0 1 79.57747154594767 0 0 0
172 1 14.345240619839242 23.31469778904775 1.3918764259742944 0 1 79.57747154594767 0 0 0
181 1 15.37748237145227 23.731296464164053 1.8637552172987362 0 1 79.57747154594767 0 0 0
179 1 16.090101259775423 22.732964341221013 2.3417013550904873 0 1 79.57747154594767 0 0 0
189 1 18.106529496095085 23.2496609337484 1.4128629237356853 0 1 79.57747154594767 0 0 0
148 1 17.224806259137953 23.386952872388576 2.2997630066935977 0 1 79.57747154594767 0 0 0
187 1 19.20812442762623 23.080217901183325 2.118732597931237 0 1 79.57747154594767 0 0 0
195 1 21.21774943113888 23.17359893166251 2.5261583548224564 0 1 79.57747154594767 0 0 0
205 1 24.29533472379593 22.946798531685765 1.840613013334738 0 1 79.57747154594767 0 0 0
209 1 26.7429528857544 23.61633628228998 1.7934137419085134 0 1 79.57747154594767 0 0 0
197 1 20.63892439335015 24.05114293270377 1.907338947116045 0 1 79.57747154594767 0 0 0
200 1 21.499540194369164 25.017180257705004 2.189348164643475 0 1 79.57747154594767 0 0 0
176 1 14.120799526504877 25.583274509778438 1.8403066002916488 0 1 79.57747154594767 0 0 0
213 1 15.415546478677031 25.867938684431522 1.298346197144838 0 1 79.57747154594767 0 0 0
184 1 16.260374211731826 25.88061683825934 2.114369679350948 0 1 79.57747154594767 0 0 0
215 1 17.59319870394779 26.304176801837006 1.6432487252453822 0 1 79.57747154594767 0 0 0
192 1 18.443394868913263 25.306500701325888 2.268450724646861 0 1 79.57747154594767 0 0 0
219 1 22.930928476241498 26.216616385429457 2.1222379789478145 0 1 79.57747154594767 0 0 0
221 1 27.039389252985004 25.707842689323076 1.9255402880095525 0 1 79.57747154594767 0 0 0
11 1 15.908665555232677 10.559393248885733 3.7546784617721607 0 1 79.57747154594767 0 0 0
19 1 19.47011703639535 9.872339100254552 3.21641082635046 0 1 79.57747154594767 0 0 0
3 1 14.076446000616698 10.76367667776118 3.724957937499539 0 1 79.57747154594767 0 0 0
27 1 21.83843325570929 10.710054679742472 3.7209491884996218 0 1 79.57747154594767 0 0 0
5 1 13.677698429782883 13.019142817126497 2.6485116451397084 0 1 79.57747154594767 0 0 0
26 1 19.81439974087459 12.426176563251252 3.0049494150977916 0 1 79.57747154594767 0 0 0
249 1 20.513140557799648 12.317769058290057 3.945362591561753 0 1 79.57747154594767 0 0 0
34 1 22.61882953427868 13.052688884126237 2.786785875730092 0 1 79.57747154594767 0 0 0
39 1 24.296519277216827 12.847589026131985 3.2663576725328274 0 1 79.57747154594767 0 0 0
41 1 26.312188698147345 12.146149472942588 2.8738894136879125 0 1 79.57747154594767 0 0 0
42 1 26.92545531670345 13.114218869151363 3.9691648430029884 0 1 79.57747154594767 0 0 0
2 1 10.306558329876363 13.887346914659634 3.90483029196023 0 1 79.57747154594767 0 0 0
18 1 17.384441333156193 13.474711475032361 2.706993107087694 0 1 79.57747154594767 0 0 0
61 1 18.640666734260964 13.888714146394978 3.3228509058993003 0 1 79.57747154594767 0 0 0
30 1 20.136437351277017 14.097492890113115 3.6620801643043515 0 1 79.57747154594767 0 0 0
45 1 13.136041826310692 14.594038246561823 3.597025809174911 0 1 79.57747154594767 0 0 0
49 1 14.616056987668442 15.90333435272784 3.8306104688880986 0 1 79.57747154594767 0 0 0
14 1 15.06719088580332 14.669024921361773 3.9100381957851083 0 1 79.57747154594767 0 0 0
275 1 16.229115720104385 15.6578200499575 2.734954604764855 0 1 79.57747154594767 0 0 0
283 1 19.592760871139433 15.785391746887212 3.684453606207551 0 1 79.57747154594767 0 0 0
65 1 20.480498922951853 15.092109904149305 2.8802912377422674 0 1 79.57747154594767 0 0 0
73 1 23.148971331193902 15.258518162321568 2.793304602394344 0 1 79.57747154594767 0 0 0
44 1 9.827107839789045 16.24892838938512 3.788104658312313 0 1 79.57747154594767 0 0 0
87 1 12.940369803691196 17.025979107897744 2.719981325966143 0 1 79.57747154594767 0 0 0
64 1 18.54310551137563 16.832261883965348 3.003250164008459 0 1 79.57747154594767 0 0 0
72 1 21.181094723173096 17.21750663690806 2.7508765885015993 0 1 79.57747154594767 0 0 0
330 1 20.11887035570634 16.76353320133903 3.9424593882259966 0 1 79.57747154594767 0 0 0
291 1 21.966525053252347 16.156600346686044 3.23262923130668 0 1 79.57747154594767 0 0 0
80 1 23.86032019260739 16.722656679801723 3.6320636598818496 0 1 79.57747154594767 0 0 0
77 1 24.552380977095048 16.0062208058448 3.1319691875862343 0 1 79.57747154594767 0 0 0
82 1 25.776313288173046 16.90972075212365 2.7707479879370625 0 1 79.57747154594767 0 0 0
81 1 25.675863325776184 16.157760926967146 3.745174375175593 0 1 79.57747154594767 0 0 0
84 1 27.694665735893462 16.085274862381738 3.8287128966214166 0 1 79.57747154594767 0 0 0
91 1 13.977668119647122 18.352648216507994 3.0776026365051616 0 1 79.57747154594767 0 0 0
99 1 16.710703130201388 17.220366065827413 3.0040092718366145 0 1 79.57747154594767 0 0 0
326 1 17.45087202018664 18.34883082111198 3.8294364578959 0 1 79.57747154594767 0 0 0
107 1 19.852989167057743 18.31489943770932 3.945701205267722 0 1 79.57747154594767 0 0 0
114 1 20.628220538754352 18.420140916822344 2.858634860282249 0 1 79.57747154594767 0 0 0
115 1 22.239236272150805 18.326766521759172 3.315784386502231 0 1 79.57747154594767 0 0 0
119 1 24.346253120600732 17.97508003929248 2.7854588281120614 0 1 79.57747154594767 0 0 0
123 1 26.995476136139356 17.563951774991466 3.613340468763595 0 1 79.57747154594767 0 0 0
94 1 15.076174896431327 19.576355048697735 2.6841365715222247 0 1 79.57747154594767 0 0 0
317 1 16.019018534380592 18.674081825684024 3.919177833946191 0 1 79.57747154594767 0 0 0
325 1 18.812046128717668 19.164573472974517 3.3371588477034146 0 1 79.57747154594767 0 0 0
122 1 24.59291908290657 19.616253154934686 3.617187531078162 0 1 79.57747154594767 0 0 0
98 1 15.666628085675853 19.903211941117146 3.7837637740078196 0 1 79.57747154594767 0 0 0
141 1 16.97320800656562 20.061068140788787 3.3081950636036916 0 1 79.57747154594767 0 0 0
149 1 18.437912299105285 20.73924853026766 2.924485894536078 0 1 79.57747154594767 0 0 0
372 1 20.00896254792099 20.170960339617917 2.88365295675734 0 1 79.57747154594767 0 0 0
157 1 21.96247484294461 20.32609945467179 2.961341892368445 0 1 79.57747154594767 0 0 0
164 1 24.26415562109219 20.668039532283245 3.75671890023701 0 1 79.57747154594767 0 0 0
128 1 10.37692349714908 21.384428884862025 3.775192642877046 0 1 79.57747154594767 0 0 0
140 1 15.099993767405719 22.011224523453627 3.3811373683062396 0 1 79.57747154594767 0 0 0
359 1 16.75932325125235 21.985355454140564 2.8113005875007957 0 1 79.57747154594767 0 0 0
156 1 20.835229041406585 22.393138711757768 3.4648297617579984 0 1 79.57747154594767 0 0 0
203 1 24.9016196173129 22.027153572638362 2.9716952566529633 0 1 79.57747154594767 0 0 0
168 1 27.475593134732755 21.367879959349104 3.7176169559542798 0 1 79.57747154594767 0 0 0
175 1 14.237605711385667 23.732477647696747 3.2218325702043473 0 1 79.57747154594767 0 0 0
183 1 17.189970942364923 23.630772038152404 3.576416020368416 0 1 79.57747154594767 0 0 0
367 1 18.15614003246823 22.66602855634461 3.6866376546899007 0 1 79.57747154594767 0 0 0
414 1 19.752844323919973 23.927593986298632 2.95752673890971 0 1 79.57747154594767 0 0 0
379 1 22.027760032750916 22.57274633259885 3.8082823922996707 0 1 79.57747154594767 0 0 0
202 1 22.925170397405832 23.557863497504325 3.326444358548608 0 1 79.57747154594767 0 0 0
422 1 24.276628303438184 23.32606073713486 3.7870045244885984 0 1 79.57747154594767 0 0 0
207 1 26.38293739252417 22.60896473399715 3.906733729164783 0 1 79.57747154594767 0 0 0
170 1 10.547779911917488 24.074511598738596 3.2957156157545273 0 1 79.57747154594767 0 0 0
211 1 12.92803310507028 24.871141860595337 3.3822533767148477 0 1 79.57747154594767 0 0 0
194 1 20.146853933758287 24.857599541906847 3.283307361470622 0 1 79.57747154594767 0 0 0
208 1 24.065312906334864 25.00237990861234 3.0361801348983204 0 1 79.57747154594767 0 0 0
425 1 25.45917798770442 24.85347623582307 3.4351144095900867 0 1 79.57747154594767 0 0 0
210 1 26.88160838092639 24.621854169086035 3.9795435776142454 0 1 79.57747154594767 0 0 0
178 1 15.322476425906505 25.31131123952524 3.2941829038867554 0 1 79.57747154594767 0 0 0
186 1 17.40241889471893 25.435667142404526 3.466694556379096 0 1 79.57747154594767 0 0 0
442 1 24.88316289738815 26.29620415068425 3.8712345985565664 0 1 79.57747154594767 0 0 0
212 1 12.913404545516718 27.610088785286393 3.612307695600337 0 1 79.57747154594767 0 0 0
214 1 15.808514843949848 27.51175374000726 3.222208425244615 0 1 79.57747154594767 0 0 0
218 1 21.151210900613655 26.89371864985997 2.7791797723333596 0 1 79.57747154594767 0 0 0
220 1 23.82283637140476 26.984674438259624 3.946057614870495 0 1 79.57747154594767 0 0 0
238 1 17.848950786040596 10.183573980070827 4.613882438788121 0 1 79.57747154594767 0 0 0
246 1 20.566702166842425 10.284184840474147 4.939739298140345 0 1 79.57747154594767 0 0 0
254 1 22.194476094140462 9.90426591195606 5.2256073082957455 0 1 79.57747154594767 0 0 0
35 1 23.526366502791674 10.319885244930662 4.083182818892854 0 1 79.57747154594767 0 0 0
222 1 11.855072116130103 11.401533273596444 4.235060164855443 0 1 79.57747154594767 0 0 0
230 1 14.052927493976627 10.732534074104093 5.0959196967937075 0 1 79.57747154594767 0 0 0
242 1 18.41147664056532 11.233300094188582 5.067607659255724 0 1 79.57747154594767 0 0 0
23 1 20.05792198427843 11.294029235749987 4.413313152408011 0 1 79.57747154594767 0 0 0
250 1 20.80577449262961 11.542084245695666 5.219721655128868 0 1 79.57747154594767 0 0 0
31 1 22.69538102680038 11.857382262446169 3.9859517388537444 0 1 79.57747154594767 0 0 0
225 1 12.932937652834882 12.948164593433678 4.674450970325998 0 1 79.57747154594767 0 0 0
7 1 14.24892946628315 12.544098416534078 4.0553393257293715 0 1 79.57747154594767 0 0 0
233 1 15.806980721482386 12.455757273501202 4.596878135624433 0 1 79.57747154594767 0 0 0
15 1 17.57050482622466 11.950219449208143 4.063218038861439 0 1 79.57747154594767 0 0 0
241 1 18.966181257870726 12.396677928363797 5.062999640133368 0 1 79.57747154594767 0 0 0
253 1 21.876700943496672 12.678672023914878 4.708902003175666 0 1 79.57747154594767 0 0 0
274 1 15.716784277128873 13.565334012174874 4.919238279630891 0 1 79.57747154594767 0 0 0
22 1 17.54409453488386 13.562709572981673 4.745920741231828 0 1 79.57747154594767 0 0 0
38 1 23.70540210189177 14.00504565704617 3.994885813899 0 1 79.57747154594767 0 0 0
261 1 26.51320810812878 14.000778306981509 4.6848480677362865 0 1 79.57747154594767 0 0 0
6 1 11.58787706984631 14.748107694753472 4.536290056496688 0 1 79.57747154594767 0 0 0
272 1 14.929304321298952 15.447946464960626 5.284034409632928 0 1 79.57747154594767 0 0 0
276 1 16.135837609429686 15.20663012219088 4.5845986841909685 0 1 79.57747154594767 0 0 0
280 1 17.302263560020176 15.404882517591751 5.007691659020171 0 1 79.57747154594767 0 0 0
288 1 19.65251448563103 15.056880991140925 4.619166425286346 0 1 79.57747154594767 0 0 0
304 1 27.07991705447015 14.997290329102496 3.9732428272401767 0 1 79.57747154594767 0 0 0
322 1 17.67344856355106 16.40096624608619 4.231456994665155 0 1 79.57747154594767 0 0 0
287 1 18.85233304720254 16.519936903282854 4.294432160828339 0 1 79.57747154594767 0 0 0
295 1 22.814498673281435 16.288079236606933 4.127135229934112 0 1 79.57747154594767 0 0 0
299 1 25.180289818446454 16.05500810414149 5.008850593359546 0 1 79.57747154594767 0 0 0
306 1 10.584442720636343 17.963924333707716 5.218789235503562 0 1 79.57747154594767 0 0 0
48 1 11.734637053896595 17.363231874469513 4.393040666483821 0 1 79.57747154594767 0 0 0
314 1 13.561775748666358 17.477425835322062 4.697702739958379 0 1 79.57747154594767 0 0 0
56 1 15.636580349556878 17.659662322363396 4.180920213257729 0 1 79.57747154594767 0 0 0
324 1 18.660718326531537 18.505576516147745 4.605731133436403 0 1 79.57747154594767 0 0 0
334 1 21.54260943193564 18.543868779454517 4.375286577379589 0 1 79.57747154594767 0 0 0
338 1 23.49301576292786 18.378230648510577 4.261926623305497 0 1 79.57747154594767 0 0 0
346 1 27.696116984730413 17.591001500498965 5.1218085979235735 0 1 79.57747154594767 0 0 0
348 1 10.214596659760353 19.835425557396313 5.123789721312252 0 1 79.57747154594767 0 0 0
86 1 10.452224445044926 18.85145024844311 4.159324753955934 0 1 79.57747154594767 0 0 0
90 1 12.119910822667817 19.807518399429796 4.604724485928115 0 1 79.57747154594767 0 0 0
309 1 13.527396943880182 18.620685400934992 4.732960831658357 0 1 79.57747154594767 0 0 0
321 1 17.803972270920077 19.505409962326702 4.544529066153917 0 1 79.57747154594767 0 0 0
331 1 20.93366605776166 19.655483059070978 5.053750581541482 0 1 79.57747154594767 0 0 0
333 1 22.25044312832086 19.731077160286876 4.1328696577464274 0 1 79.57747154594767 0 0 0
380 1 23.571986172978047 19.79859859498795 4.7748084046959525 0 1 79.57747154594767 0 0 0
341 1 26.00719617414639 18.746773390855225 4.252092569926756 0 1 79.57747154594767 0 0 0
345 1 26.23642707146079 19.604090793923355 5.293595548847421 0 1 79.57747154594767 0 0 0
126 1 27.02258641732636 19.614454463504167 4.069250477886841 0 1 79.57747154594767 0 0 0
388 1 28.087147991808628 19.118772010681063 4.7972503196941325 0 1 79.57747154594767 0 0 0
133 1 13.078292926522941 20.54387929780259 4.303569125510219 0 1 79.57747154594767 0 0 0
356 1 14.55204645314224 20.37054040636913 4.404921995492616 0 1 79.57747154594767 0 0 0
360 1 16.300917891982117 20.373841755384557 4.700348689396428 0 1 79.57747154594767 0 0 0
364 1 18.127590561349077 20.75162630943542 4.058449399576059 0 1 79.57747154594767 0 0 0
329 1 19.351016269729943 19.97643360101471 4.498518286495456 0 1 79.57747154594767 0 0 0
376 1 20.579755423906928 20.759235825873738 4.721371643893114 0 1 79.57747154594767 0 0 0
375 1 21.304829497553175 21.1203671954421 3.947290236047496 0 1 79.57747154594767 0 0 0
374 1 22.106139210653836 20.94446084829459 4.986475326903496 0 1 79.57747154594767 0 0 0
165 1 26.57772822539963 20.5358931758836 4.500927341333262 0 1 79.57747154594767 0 0 0
390 1 10.622981024027046 22.324358279517256 5.086269018732052 0 1 79.57747154594767 0 0 0
351 1 11.8193937069198 21.25652053724694 4.932034859472671 0 1 79.57747154594767 0 0 0
355 1 13.811072955612058 21.3860952852338 5.015388981177663 0 1 79.57747154594767 0 0 0
406 1 16.42488295826895 22.154056232881214 4.1431185233268675 0 1 79.57747154594767 0 0 0
365 1 18.147459475305563 21.79260264185546 4.684880857064054 0 1 79.57747154594767 0 0 0
368 1 19.88875206172313 22.08885418398226 4.038506160922253 0 1 79.57747154594767 0 0 0
418 1 21.827682572612257 21.98314092096768 4.8141946989177455 0 1 79.57747154594767 0 0 0
383 1 25.671657277805352 21.21750165635386 4.956483296674259 0 1 79.57747154594767 0 0 0
132 1 11.255061267703313 22.64317179373851 4.1082377167532735 0 1 79.57747154594767 0 0 0
371 1 19.94792426738963 23.217667435707888 4.504238795822644 0 1 79.57747154594767 0 0 0
393 1 13.776586694630776 24.531875832740376 5.000726312127007 0 1 79.57747154594767 0 0 0
410 1 18.1445799761209 24.651002563056412 4.091920777552317 0 1 79.57747154594767 0 0 0
191 1 19.1715485949764 24.208521215712093 4.327394373305598 0 1 79.57747154594767 0 0 0
417 1 20.83174879667798 25.182687061957054 4.328680683468499 0 1 79.57747154594767 0 0 0
199 1 21.6868315709995 24.0334933044231 4.366351417621878 0 1 79.57747154594767 0 0 0
174 1 12.337138063123037 25.85579198595971 4.272097706554338 0 1 79.57747154594767 0 0 0
397 1 13.73696638872898 26.381228145128635 5.031906126993772 0 1 79.57747154594767 0 0 0
182 1 15.481010540721075 26.36501848286743 4.280902738303418 0 1 79.57747154594767 0 0 0
401 1 16.782616234031444 25.29289785635799 4.436087844610007 0 1 79.57747154594767 0 0 0
409 1 18.484360089420484 25.731027995081536 4.520025264105942 0 1 79.57747154594767 0 0 0
198 1 20.992696765763842 26.501784984767287 4.055984345548356 0 1 79.57747154594767 0 0 0
421 1 21.07056611223317 26.179291996647454 5.229049251681525 0 1 79.57747154594767 0 0 0
206 1 23.037082072119983 25.913249268706252 4.407744158684419 0 1 79.57747154594767 0 0 0
190 1 17.624930020263857 26.870318735604997 4.2767880626688175 0 1 79.57747154594767 0 0 0
436 1 17.25849910819673 27.57142729008995 5.289034749228843 0 1 79.57747154594767 0 0 0
216 1 19.19658721442336 27.153155239959105 4.027492638229946 0 1 79.57747154594767 0 0 0
438 1 20.21865291211438 27.12294636386095 4.773581261873857 0 1 79.57747154594767 0 0 0
440 1 21.92195009531155 27.334621260501457 4.9407029955932495 0 1 79.57747154594767 0 0 0
1099 1 21.257415214101062 34.350127892635115 3.6972615500547956 0 1 79.57747154594767 0 0 0
481 1 26.518578692649804 8.83546947912432 5.90265427667221 0 1 79.57747154594767 0 0 0
224 1 13.282950144301774 10.25428134044737 6.084478891243586 0 1 79.57747154594767 0 0 0
232 1 16.387559090345928 9.581017747702239 6.1329397621732475 0 1 79.57747154594767 0 0 0
240 1 18.549521064275485 10.285264615220537 6.261881018738652 0 1 79.57747154594767 0 0 0
236 1 16.91949188544353 11.211890006552052 6.282323005090611 0 1 79.57747154594767 0 0 0
234 1 16.06653447745262 11.292733055639154 5.380133565417992 0 1 79.57747154594767 0 0 0
248 1 20.976477731957605 10.56938890803585 6.217752286749507 0 1 79.57747154594767 0 0 0
252 1 22.230396959906432 11.048140187156754 6.55607628531886 0 1 79.57747154594767 0 0 0
258 1 23.070472491755616 11.245363202732905 5.532494240818609 0 1 79.57747154594767 0 0 0
256 1 24.246573750193487 10.852967701399077 6.614709404871718 0 1 79.57747154594767 0 0 0
262 1 26.223642047571303 11.683109982494079 5.693969493887978 0 1 79.57747154594767 0 0 0
223 1 10.133899343857395 13.19691091971694 6.293639057928189 0 1 79.57747154594767 0 0 0
226 1 12.292573702468244 12.39490975495861 6.108554593177624 0 1 79.57747154594767 0 0 0
231 1 15.26261454400425 12.0827797872508 5.8633425381289594 0 1 79.57747154594767 0 0 0
237 1 17.237890879524006 12.154370860299661 5.37705928652988 0 1 79.57747154594767 0 0 0
239 1 18.523898400457345 12.307559957044557 6.133315357154811 0 1 79.57747154594767 0 0 0
243 1 17.320047558475448 12.791285339897206 6.226934142237053 0 1 79.57747154594767 0 0 0
255 1 22.57354204406829 12.513150487328389 6.002971748763402 0 1 79.57747154594767 0 0 0
227 1 11.744400990360539 13.858903242795973 6.323896344664568 0 1 79.57747154594767 0 0 0
229 1 14.018355556739667 13.470315124753297 5.918814300877887 0 1 79.57747154594767 0 0 0
278 1 17.142243769883972 14.287752424852515 5.602627738243091 0 1 79.57747154594767 0 0 0
245 1 20.057820170696086 13.404863967859042 5.575557975023047 0 1 79.57747154594767 0 0 0
251 1 20.996800436560886 13.385965986419507 6.519600154137573 0 1 79.57747154594767 0 0 0
290 1 21.97824162745973 13.542283842902066 6.087448334927124 0 1 79.57747154594767 0 0 0
257 1 24.019515314047474 13.354715247626643 5.390000090372832 0 1 79.57747154594767 0 0 0
263 1 27.027737104871683 13.609712161016143 5.859366446033287 0 1 79.57747154594767 0 0 0
264 1 10.674409728058823 15.150893834539536 5.449626570040548 0 1 79.57747154594767 0 0 0
268 1 11.41434533463936 15.680552011209443 6.499701411854781 0 1 79.57747154594767 0 0 0
266 1 12.707491625875209 14.758271483166876 6.357322292331082 0 1 79.57747154594767 0 0 0