LAMMPS (10 Dec 2025)
KOKKOS mode with Kokkos version 4.7.1 is enabled
  using double precision
  using view layout = legacy
  using unified memory
  will use up to 1 GPU(s) per node
  using 2 OpenMP thread(s) per MPI task
package kokkos
###
# Box and units  (use LJ units and periodic boundaries)
###

units           lj
atom_style      hybrid bond ellipsoid
WARNING: Atom style hybrid defines both, per-type and per-atom masses; both must be set, but only per-atom masses will be used (src/atom_vec_hybrid.cpp:132)
dimension	3
boundary	p p p
#newton 		on

lattice		diamond 0.5
Lattice spacing in x,y,z = 2.5198421 2.5198421 2.5198421
region		box block 0 20 0 20 0 20
create_box	2 box bond/types 1 extra/bond/per/atom 2
Created orthogonal box = (0 0 0) to (50.396842 50.396842 50.396842)
  1 by 1 by 1 MPI processor grid

###################################################################
# Create Atoms in empty space
#
region         lower block 5 10 5 10 1 6
create_atoms   1 region lower
Created 1166 atoms
  using lattice units in orthogonal box = (0 0 0) to (50.396842 50.396842 50.396842)
  create_atoms CPU = 0.011 seconds
region         upper block 5 10 5 10 14 19
create_atoms   1 region upper
Created 1166 atoms
  using lattice units in orthogonal box = (0 0 0) to (50.396842 50.396842 50.396842)
  create_atoms CPU = 0.003 seconds

###################################################################
# Create Polymers
#
variable N       equal 19   # Number of beads per polymer
variable Ny_val  equal 20   # Number of polymers placed in y
variable Ny       loop ${Ny_val}
variable Ny       loop 20
variable Nz       loop 3    # Number of polymers placed in z
variable dbead   equal 0.3
variable step    equal 1    # Step size for the random walk

# Initialise the first bead
variable x0 equal 5.0
variable y0 equal 5.0
variable z0 equal 6.5

# Create the remaining beads
label loop_z
label loop_y
label loop_bead
if "${step} > ${N}" then "jump SELF end_inner"
    variable x equal ${x0} + ${dbead}
    variable x equal 5 + ${dbead}
    variable x equal 5 + 0.3
    variable y equal ${y0} + 1.5*${Ny}
    variable y equal 5 + 1.5*${Ny}
    variable y equal 5 + 1.5*1
    variable z equal ${z0} + 1.5*${Nz}
    variable z equal 6.5 + 1.5*${Nz}
    variable z equal 6.5 + 1.5*1
    create_atoms 2 single ${x} ${y} ${z}
    create_atoms 2 single 5.3 ${y} ${z}
    create_atoms 2 single 5.3 6.5 ${z}
    create_atoms 2 single 5.3 6.5 8
Created 1 atoms
  using lattice units in orthogonal box = (0 0 0) to (50.396842 50.396842 50.396842)
  create_atoms CPU = 0.001 seconds
    variable x0 equal ${x}
    variable x0 equal 5.3
    variable step equal ${step} + 1
    variable step equal 1 + 1
jump SELF loop_bead
if "${step} > ${N}" then "jump SELF end_inner"
    variable x equal ${x0} + ${dbead}
    variable x equal 5.3 + ${dbead}
    variable x equal 5.3 + 0.3
    variable y equal ${y0} + 1.5*${Ny}
    variable y equal 5 + 1.5*${Ny}
    variable y equal 5 + 1.5*1
    variable z equal ${z0} + 1.5*${Nz}
    variable z equal 6.5 + 1.5*${Nz}
    variable z equal 6.5 + 1.5*1
    create_atoms 2 single ${x} ${y} ${z}
    create_atoms 2 single 5.6 ${y} ${z}
    create_atoms 2 single 5.6 6.5 ${z}
    create_atoms 2 single 5.6 6.5 8
Created 1 atoms
  using lattice units in orthogonal box = (0 0 0) to (50.396842 50.396842 50.396842)
  create_atoms CPU = 0.001 seconds
    variable x0 equal ${x}
    variable x0 equal 5.6
    variable step equal ${step} + 1
    variable step equal 2 + 1
jump SELF loop_bead
if "${step} > ${N}" then "jump SELF end_inner"
    variable x equal ${x0} + ${dbead}
    variable x equal 5.6 + ${dbead}
    variable x equal 5.6 + 0.3
    variable y equal ${y0} + 1.5*${Ny}
    variable y equal 5 + 1.5*${Ny}
    variable y equal 5 + 1.5*1
    variable z equal ${z0} + 1.5*${Nz}
    variable z equal 6.5 + 1.5*${Nz}
    variable z equal 6.5 + 1.5*1
    create_atoms 2 single ${x} ${y} ${z}
    create_atoms 2 single 5.9 ${y} ${z}
    create_atoms 2 single 5.9 6.5 ${z}
    create_atoms 2 single 5.9 6.5 8
Created 1 atoms
  using lattice units in orthogonal box = (0 0 0) to (50.396842 50.396842 50.396842)
  create_atoms CPU = 0.001 seconds
    variable x0 equal ${x}
    variable x0 equal 5.9
    variable step equal ${step} + 1
    variable step equal 3 + 1
jump SELF loop_bead
if "${step} > ${N}" then "jump SELF end_inner"
    variable x equal ${x0} + ${dbead}
    variable x equal 5.9 + ${dbead}
    variable x equal 5.9 + 0.3
    variable y equal ${y0} + 1.5*${Ny}
    variable y equal 5 + 1.5*${Ny}
    variable y equal 5 + 1.5*1
    variable z equal ${z0} + 1.5*${Nz}
    variable z equal 6.5 + 1.5*${Nz}
    variable z equal 6.5 + 1.5*1
    create_atoms 2 single ${x} ${y} ${z}
    create_atoms 2 single 6.2 ${y} ${z}
    create_atoms 2 single 6.2 6.5 ${z}
    create_atoms 2 single 6.2 6.5 8
Created 1 atoms
  using lattice units in orthogonal box = (0 0 0) to (50.396842 50.396842 50.396842)
  create_atoms CPU = 0.001 seconds
    variable x0 equal ${x}
    variable x0 equal 6.2
    variable step equal ${step} + 1
    variable step equal 4 + 1
jump SELF loop_bead
if "${step} > ${N}" then "jump SELF end_inner"
    variable x equal ${x0} + ${dbead}
    variable x equal 6.2 + ${dbead}
    variable x equal 6.2 + 0.3
    variable y equal ${y0} + 1.5*${Ny}
    variable y equal 5 + 1.5*${Ny}
    variable y equal 5 + 1.5*1
    variable z equal ${z0} + 1.5*${Nz}
    variable z equal 6.5 + 1.5*${Nz}
    variable z equal 6.5 + 1.5*1
    create_atoms 2 single ${x} ${y} ${z}
    create_atoms 2 single 6.5 ${y} ${z}
    create_atoms 2 single 6.5 6.5 ${z}
    create_atoms 2 single 6.5 6.5 8
Created 1 atoms
  using lattice units in orthogonal box = (0 0 0) to (50.396842 50.396842 50.396842)
  create_atoms CPU = 0.001 seconds
    variable x0 equal ${x}
    variable x0 equal 6.5
    variable step equal ${step} + 1
    variable step equal 5 + 1
jump SELF loop_bead
if "${step} > ${N}" then "jump SELF end_inner"
    variable x equal ${x0} + ${dbead}
    variable x equal 6.5 + ${dbead}
    variable x equal 6.5 + 0.3
    variable y equal ${y0} + 1.5*${Ny}
    variable y equal 5 + 1.5*${Ny}
    variable y equal 5 + 1.5*1
    variable z equal ${z0} + 1.5*${Nz}
    variable z equal 6.5 + 1.5*${Nz}
    variable z equal 6.5 + 1.5*1
    create_atoms 2 single ${x} ${y} ${z}
    create_atoms 2 single 6.8 ${y} ${z}
    create_atoms 2 single 6.8 6.5 ${z}
    create_atoms 2 single 6.8 6.5 8
Created 1 atoms
  using lattice units in orthogonal box = (0 0 0) to (50.396842 50.396842 50.396842)
  create_atoms CPU = 0.001 seconds
    variable x0 equal ${x}
    variable x0 equal 6.8
    variable step equal ${step} + 1
    variable step equal 6 + 1
jump SELF loop_bead
if "${step} > ${N}" then "jump SELF end_inner"
    variable x equal ${x0} + ${dbead}
    variable x equal 6.8 + ${dbead}
    variable x equal 6.8 + 0.3
    variable y equal ${y0} + 1.5*${Ny}
    variable y equal 5 + 1.5*${Ny}
    variable y equal 5 + 1.5*1
    variable z equal ${z0} + 1.5*${Nz}
    variable z equal 6.5 + 1.5*${Nz}
    variable z equal 6.5 + 1.5*1
    create_atoms 2 single ${x} ${y} ${z}
    create_atoms 2 single 7.1 ${y} ${z}
    create_atoms 2 single 7.1 6.5 ${z}
    create_atoms 2 single 7.1 6.5 8
Created 1 atoms
  using lattice units in orthogonal box = (0 0 0) to (50.396842 50.396842 50.396842)
  create_atoms CPU = 0.000 seconds
    variable x0 equal ${x}
    variable x0 equal 7.1
    variable step equal ${step} + 1
    variable step equal 7 + 1
jump SELF loop_bead
if "${step} > ${N}" then "jump SELF end_inner"
    variable x equal ${x0} + ${dbead}
    variable x equal 7.1 + ${dbead}
    variable x equal 7.1 + 0.3
    variable y equal ${y0} + 1.5*${Ny}
    variable y equal 5 + 1.5*${Ny}
    variable y equal 5 + 1.5*1
    variable z equal ${z0} + 1.5*${Nz}
    variable z equal 6.5 + 1.5*${Nz}
    variable z equal 6.5 + 1.5*1
    create_atoms 2 single ${x} ${y} ${z}
    create_atoms 2 single 7.4 ${y} ${z}
    create_atoms 2 single 7.4 6.5 ${z}
    create_atoms 2 single 7.4 6.5 8
Created 1 atoms
  using lattice units in orthogonal box = (0 0 0) to (50.396842 50.396842 50.396842)
  create_atoms CPU = 0.001 seconds
    variable x0 equal ${x}
    variable x0 equal 7.4
    variable step equal ${step} + 1
    variable step equal 8 + 1
jump SELF loop_bead
if "${step} > ${N}" then "jump SELF end_inner"
    variable x equal ${x0} + ${dbead}
    variable x equal 7.4 + ${dbead}
    variable x equal 7.4 + 0.3
    variable y equal ${y0} + 1.5*${Ny}
    variable y equal 5 + 1.5*${Ny}
    variable y equal 5 + 1.5*1
    variable z equal ${z0} + 1.5*${Nz}
    variable z equal 6.5 + 1.5*${Nz}
    variable z equal 6.5 + 1.5*1
    create_atoms 2 single ${x} ${y} ${z}
    create_atoms 2 single 7.7 ${y} ${z}
    create_atoms 2 single 7.7 6.5 ${z}
    create_atoms 2 single 7.7 6.5 8
Created 1 atoms
  using lattice units in orthogonal box = (0 0 0) to (50.396842 50.396842 50.396842)
  create_atoms CPU = 0.001 seconds
    variable x0 equal ${x}
    variable x0 equal 7.7
    variable step equal ${step} + 1
    variable step equal 9 + 1
jump SELF loop_bead
if "${step} > ${N}" then "jump SELF end_inner"
    variable x equal ${x0} + ${dbead}
    variable x equal 7.7 + ${dbead}
    variable x equal 7.7 + 0.3
    variable y equal ${y0} + 1.5*${Ny}
    variable y equal 5 + 1.5*${Ny}
    variable y equal 5 + 1.5*1
    variable z equal ${z0} + 1.5*${Nz}
    variable z equal 6.5 + 1.5*${Nz}
    variable z equal 6.5 + 1.5*1
    create_atoms 2 single ${x} ${y} ${z}
    create_atoms 2 single 8 ${y} ${z}
    create_atoms 2 single 8 6.5 ${z}
    create_atoms 2 single 8 6.5 8
Created 1 atoms
  using lattice units in orthogonal box = (0 0 0) to (50.396842 50.396842 50.396842)
  create_atoms CPU = 0.000 seconds
    variable x0 equal ${x}
    variable x0 equal 8
    variable step equal ${step} + 1
    variable step equal 10 + 1
jump SELF loop_bead
if "${step} > ${N}" then "jump SELF end_inner"
    variable x equal ${x0} + ${dbead}
    variable x equal 8 + ${dbead}
    variable x equal 8 + 0.3
    variable y equal ${y0} + 1.5*${Ny}
    variable y equal 5 + 1.5*${Ny}
    variable y equal 5 + 1.5*1
    variable z equal ${z0} + 1.5*${Nz}
    variable z equal 6.5 + 1.5*${Nz}
    variable z equal 6.5 + 1.5*1
    create_atoms 2 single ${x} ${y} ${z}
    create_atoms 2 single 8.3 ${y} ${z}
    create_atoms 2 single 8.3 6.5 ${z}
    create_atoms 2 single 8.3 6.5 8
Created 1 atoms
  using lattice units in orthogonal box = (0 0 0) to (50.396842 50.396842 50.396842)
  create_atoms CPU = 0.001 seconds
    variable x0 equal ${x}
    variable x0 equal 8.3
    variable step equal ${step} + 1
    variable step equal 11 + 1
jump SELF loop_bead
if "${step} > ${N}" then "jump SELF end_inner"
    variable x equal ${x0} + ${dbead}
    variable x equal 8.3 + ${dbead}
    variable x equal 8.3 + 0.3
    variable y equal ${y0} + 1.5*${Ny}
    variable y equal 5 + 1.5*${Ny}
    variable y equal 5 + 1.5*1
    variable z equal ${z0} + 1.5*${Nz}
    variable z equal 6.5 + 1.5*${Nz}
    variable z equal 6.5 + 1.5*1
    create_atoms 2 single ${x} ${y} ${z}
    create_atoms 2 single 8.6 ${y} ${z}
    create_atoms 2 single 8.6 6.5 ${z}
    create_atoms 2 single 8.6 6.5 8
Created 1 atoms
  using lattice units in orthogonal box = (0 0 0) to (50.396842 50.396842 50.396842)
  create_atoms CPU = 0.000 seconds
    variable x0 equal ${x}
    variable x0 equal 8.6
    variable step equal ${step} + 1
    variable step equal 12 + 1
jump SELF loop_bead
if "${step} > ${N}" then "jump SELF end_inner"
    variable x equal ${x0} + ${dbead}
    variable x equal 8.6 + ${dbead}
    variable x equal 8.6 + 0.3
    variable y equal ${y0} + 1.5*${Ny}
    variable y equal 5 + 1.5*${Ny}
    variable y equal 5 + 1.5*1
    variable z equal ${z0} + 1.5*${Nz}
    variable z equal 6.5 + 1.5*${Nz}
    variable z equal 6.5 + 1.5*1
    create_atoms 2 single ${x} ${y} ${z}
    create_atoms 2 single 8.9 ${y} ${z}
    create_atoms 2 single 8.9 6.5 ${z}
    create_atoms 2 single 8.9 6.5 8
Created 1 atoms
  using lattice units in orthogonal box = (0 0 0) to (50.396842 50.396842 50.396842)
  create_atoms CPU = 0.000 seconds
    variable x0 equal ${x}
    variable x0 equal 8.9
    variable step equal ${step} + 1
    variable step equal 13 + 1
jump SELF loop_bead
if "${step} > ${N}" then "jump SELF end_inner"
    variable x equal ${x0} + ${dbead}
    variable x equal 8.9 + ${dbead}
    variable x equal 8.9 + 0.3
    variable y equal ${y0} + 1.5*${Ny}
    variable y equal 5 + 1.5*${Ny}
    variable y equal 5 + 1.5*1
    variable z equal ${z0} + 1.5*${Nz}
    variable z equal 6.5 + 1.5*${Nz}
    variable z equal 6.5 + 1.5*1
    create_atoms 2 single ${x} ${y} ${z}
    create_atoms 2 single 9.2 ${y} ${z}
    create_atoms 2 single 9.2 6.5 ${z}
    create_atoms 2 single 9.2 6.5 8
Created 1 atoms
  using lattice units in orthogonal box = (0 0 0) to (50.396842 50.396842 50.396842)
  create_atoms CPU = 0.001 seconds
    variable x0 equal ${x}
    variable x0 equal 9.2
    variable step equal ${step} + 1
    variable step equal 14 + 1
jump SELF loop_bead
if "${step} > ${N}" then "jump SELF end_inner"
    variable x equal ${x0} + ${dbead}
    variable x equal 9.2 + ${dbead}
    variable x equal 9.2 + 0.3
    variable y equal ${y0} + 1.5*${Ny}
    variable y equal 5 + 1.5*${Ny}
    variable y equal 5 + 1.5*1
    variable z equal ${z0} + 1.5*${Nz}
    variable z equal 6.5 + 1.5*${Nz}
    variable z equal 6.5 + 1.5*1
    create_atoms 2 single ${x} ${y} ${z}
    create_atoms 2 single 9.5 ${y} ${z}
    create_atoms 2 single 9.5 6.5 ${z}
    create_atoms 2 single 9.5 6.5 8
Created 1 atoms
  using lattice units in orthogonal box = (0 0 0) to (50.396842 50.396842 50.396842)
  create_atoms CPU = 0.000 seconds
    variable x0 equal ${x}
    variable x0 equal 9.5
    variable step equal ${step} + 1
    variable step equal 15 + 1
jump SELF loop_bead
if "${step} > ${N}" then "jump SELF end_inner"
    variable x equal ${x0} + ${dbead}
    variable x equal 9.5 + ${dbead}
    variable x equal 9.5 + 0.3
    variable y equal ${y0} + 1.5*${Ny}
    variable y equal 5 + 1.5*${Ny}
    variable y equal 5 + 1.5*1
    variable z equal ${z0} + 1.5*${Nz}
    variable z equal 6.5 + 1.5*${Nz}
    variable z equal 6.5 + 1.5*1
    create_atoms 2 single ${x} ${y} ${z}
    create_atoms 2 single 9.8 ${y} ${z}
    create_atoms 2 single 9.8 6.5 ${z}
    create_atoms 2 single 9.8 6.5 8
Created 1 atoms
  using lattice units in orthogonal box = (0 0 0) to (50.396842 50.396842 50.396842)
  create_atoms CPU = 0.001 seconds
    variable x0 equal ${x}
    variable x0 equal 9.8
    variable step equal ${step} + 1
    variable step equal 16 + 1
jump SELF loop_bead
if "${step} > ${N}" then "jump SELF end_inner"
    variable x equal ${x0} + ${dbead}
    variable x equal 9.8 + ${dbead}
    variable x equal 9.8 + 0.3
    variable y equal ${y0} + 1.5*${Ny}
    variable y equal 5 + 1.5*${Ny}
    variable y equal 5 + 1.5*1
    variable z equal ${z0} + 1.5*${Nz}
    variable z equal 6.5 + 1.5*${Nz}
    variable z equal 6.5 + 1.5*1
    create_atoms 2 single ${x} ${y} ${z}
    create_atoms 2 single 10.1 ${y} ${z}
    create_atoms 2 single 10.1 6.5 ${z}
    create_atoms 2 single 10.1 6.5 8
Created 1 atoms
  using lattice units in orthogonal box = (0 0 0) to (50.396842 50.396842 50.396842)
  create_atoms CPU = 0.000 seconds
    variable x0 equal ${x}
    variable x0 equal 10.1
    variable step equal ${step} + 1
    variable step equal 17 + 1
jump SELF loop_bead
if "${step} > ${N}" then "jump SELF end_inner"
    variable x equal ${x0} + ${dbead}
    variable x equal 10.1 + ${dbead}
    variable x equal 10.1 + 0.3
    variable y equal ${y0} + 1.5*${Ny}
    variable y equal 5 + 1.5*${Ny}
    variable y equal 5 + 1.5*1
    variable z equal ${z0} + 1.5*${Nz}
    variable z equal 6.5 + 1.5*${Nz}
    variable z equal 6.5 + 1.5*1
    create_atoms 2 single ${x} ${y} ${z}
    create_atoms 2 single 10.4 ${y} ${z}
    create_atoms 2 single 10.4 6.5 ${z}
    create_atoms 2 single 10.4 6.5 8
Created 1 atoms
  using lattice units in orthogonal box = (0 0 0) to (50.396842 50.396842 50.396842)
  create_atoms CPU = 0.000 seconds
    variable x0 equal ${x}
    variable x0 equal 10.4
    variable step equal ${step} + 1
    variable step equal 18 + 1
jump SELF loop_bead
if "${step} > ${N}" then "jump SELF end_inner"
    variable x equal ${x0} + ${dbead}
    variable x equal 10.4 + ${dbead}
    variable x equal 10.4 + 0.3
    variable y equal ${y0} + 1.5*${Ny}
    variable y equal 5 + 1.5*${Ny}
    variable y equal 5 + 1.5*1
    variable z equal ${z0} + 1.5*${Nz}
    variable z equal 6.5 + 1.5*${Nz}
    variable z equal 6.5 + 1.5*1
    create_atoms 2 single ${x} ${y} ${z}
    create_atoms 2 single 10.7 ${y} ${z}
    create_atoms 2 single 10.7 6.5 ${z}
    create_atoms 2 single 10.7 6.5 8
Created 1 atoms
  using lattice units in orthogonal box = (0 0 0) to (50.396842 50.396842 50.396842)
  create_atoms CPU = 0.001 seconds
    variable x0 equal ${x}
    variable x0 equal 10.7
    variable step equal ${step} + 1
    variable step equal 19 + 1
jump SELF loop_bead
if "${step} > ${N}" then "jump SELF end_inner"
jump SELF end_inner
variable x0 equal 5.0
variable y0 equal 5.0
variable step equal 1
next Ny
jump SELF loop_y
label loop_bead
if "${step} > ${N}" then "jump SELF end_inner"
    variable x equal ${x0} + ${dbead}
    variable x equal 5 + ${dbead}
    variable x equal 5 + 0.3
    variable y equal ${y0} + 1.5*${Ny}
    variable y equal 5 + 1.5*${Ny}
    variable y equal 5 + 1.5*2
    variable z equal ${z0} + 1.5*${Nz}
    variable z equal 6.5 + 1.5*${Nz}
    variable z equal 6.5 + 1.5*1
    create_atoms 2 single ${x} ${y} ${z}
    create_atoms 2 single 5.3 ${y} ${z}
    create_atoms 2 single 5.3 8 ${z}
    create_atoms 2 single 5.3 8 8
Created 1 atoms
  using lattice units in orthogonal box = (0 0 0) to (50.396842 50.396842 50.396842)
  create_atoms CPU = 0.000 seconds
    variable x0 equal ${x}
    variable x0 equal 5.3
    variable step equal ${step} + 1
    variable step equal 1 + 1
jump SELF loop_bead
if "${step} > ${N}" then "jump SELF end_inner"
    variable x equal ${x0} + ${dbead}
    variable x equal 5.3 + ${dbead}
    variable x equal 5.3 + 0.3
    variable y equal ${y0} + 1.5*${Ny}
    variable y equal 5 + 1.5*${Ny}
    variable y equal 5 + 1.5*2
    variable z equal ${z0} + 1.5*${Nz}
    variable z equal 6.5 + 1.5*${Nz}
    variable z equal 6.5 + 1.5*1
    create_atoms 2 single ${x} ${y} ${z}
    create_atoms 2 single 5.6 ${y} ${z}
    create_atoms 2 single 5.6 8 ${z}
    create_atoms 2 single 5.6 8 8
Created 1 atoms
  using lattice units in orthogonal box = (0 0 0) to (50.396842 50.396842 50.396842)
  create_atoms CPU = 0.000 seconds
    variable x0 equal ${x}
    variable x0 equal 5.6
    variable step equal ${step} + 1
    variable step equal 2 + 1
jump SELF loop_bead
if "${step} > ${N}" then "jump SELF end_inner"
    variable x equal ${x0} + ${dbead}
    variable x equal 5.6 + ${dbead}
    variable x equal 5.6 + 0.3
    variable y equal ${y0} + 1.5*${Ny}
    variable y equal 5 + 1.5*${Ny}
    variable y equal 5 + 1.5*2
    variable z equal ${z0} + 1.5*${Nz}
    variable z equal 6.5 + 1.5*${Nz}
    variable z equal 6.5 + 1.5*1
    create_atoms 2 single ${x} ${y} ${z}
    create_atoms 2 single 5.9 ${y} ${z}
    create_atoms 2 single 5.9 8 ${z}
    create_atoms 2 single 5.9 8 8
Created 1 atoms
  using lattice units in orthogonal box = (0 0 0) to (50.396842 50.396842 50.396842)
  create_atoms CPU = 0.001 seconds
    variable x0 equal ${x}
    variable x0 equal 5.9
    variable step equal ${step} + 1
    variable step equal 3 + 1
jump SELF loop_bead
if "${step} > ${N}" then "jump SELF end_inner"
    variable x equal ${x0} + ${dbead}
    variable x equal 5.9 + ${dbead}
    variable x equal 5.9 + 0.3
    variable y equal ${y0} + 1.5*${Ny}
    variable y equal 5 + 1.5*${Ny}
    variable y equal 5 + 1.5*2
    variable z equal ${z0} + 1.5*${Nz}
    variable z equal 6.5 + 1.5*${Nz}
    variable z equal 6.5 + 1.5*1
    create_atoms 2 single ${x} ${y} ${z}
    create_atoms 2 single 6.2 ${y} ${z}
    create_atoms 2 single 6.2 8 ${z}
    create_atoms 2 single 6.2 8 8
Created 1 atoms
  using lattice units in orthogonal box = (0 0 0) to (50.396842 50.396842 50.396842)
  create_atoms CPU = 0.000 seconds
    variable x0 equal ${x}
    variable x0 equal 6.2
    variable step equal ${step} + 1
    variable step equal 4 + 1
jump SELF loop_bead
if "${step} > ${N}" then "jump SELF end_inner"
    variable x equal ${x0} + ${dbead}
    variable x equal 6.2 + ${dbead}
    variable x equal 6.2 + 0.3
    variable y equal ${y0} + 1.5*${Ny}
    variable y equal 5 + 1.5*${Ny}
    variable y equal 5 + 1.5*2
    variable z equal ${z0} + 1.5*${Nz}
    variable z equal 6.5 + 1.5*${Nz}
    variable z equal 6.5 + 1.5*1
    create_atoms 2 single ${x} ${y} ${z}
    create_atoms 2 single 6.5 ${y} ${z}
    create_atoms 2 single 6.5 8 ${z}
    create_atoms 2 single 6.5 8 8
Created 1 atoms
  using lattice units in orthogonal box = (0 0 0) to (50.396842 50.396842 50.396842)
  create_atoms CPU = 0.001 seconds
    variable x0 equal ${x}
    variable x0 equal 6.5
    variable step equal ${step} + 1
    variable step equal 5 + 1
jump SELF loop_bead
if "${step} > ${N}" then "jump SELF end_inner"
    variable x equal ${x0} + ${dbead}
    variable x equal 6.5 + ${dbead}
    variable x equal 6.5 + 0.3
    variable y equal ${y0} + 1.5*${Ny}
    variable y equal 5 + 1.5*${Ny}
    variable y equal 5 + 1.5*2
    variable z equal ${z0} + 1.5*${Nz}
    variable z equal 6.5 + 1.5*${Nz}
    variable z equal 6.5 + 1.5*1
    create_atoms 2 single ${x} ${y} ${z}
    create_atoms 2 single 6.8 ${y} ${z}
    create_atoms 2 single 6.8 8 ${z}
    create_atoms 2 single 6.8 8 8
Created 1 atoms
  using lattice units in orthogonal box = (0 0 0) to (50.396842 50.396842 50.396842)
  create_atoms CPU = 0.000 seconds
    variable x0 equal ${x}
    variable x0 equal 6.8
    variable step equal ${step} + 1
    variable step equal 6 + 1
jump SELF loop_bead
if "${step} > ${N}" then "jump SELF end_inner"
    variable x equal ${x0} + ${dbead}
    variable x equal 6.8 + ${dbead}
    variable x equal 6.8 + 0.3
    variable y equal ${y0} + 1.5*${Ny}
    variable y equal 5 + 1.5*${Ny}
    variable y equal 5 + 1.5*2
    variable z equal ${z0} + 1.5*${Nz}
    variable z equal 6.5 + 1.5*${Nz}
    variable z equal 6.5 + 1.5*1
    create_atoms 2 single ${x} ${y} ${z}
    create_atoms 2 single 7.1 ${y} ${z}
    create_atoms 2 single 7.1 8 ${z}
    create_atoms 2 single 7.1 8 8
Created 1 atoms
  using lattice units in orthogonal box = (0 0 0) to (50.396842 50.396842 50.396842)
  create_atoms CPU = 0.000 seconds
    variable x0 equal ${x}
    variable x0 equal 7.1
    variable step equal ${step} + 1
    variable step equal 7 + 1
jump SELF loop_bead
if "${step} > ${N}" then "jump SELF end_inner"
    variable x equal ${x0} + ${dbead}
    variable x equal 7.1 + ${dbead}
    variable x equal 7.1 + 0.3
    variable y equal ${y0} + 1.5*${Ny}
    variable y equal 5 + 1.5*${Ny}
    variable y equal 5 + 1.5*2
    variable z equal ${z0} + 1.5*${Nz}
    variable z equal 6.5 + 1.5*${Nz}
    variable z equal 6.5 + 1.5*1
    create_atoms 2 single ${x} ${y} ${z}
    create_atoms 2 single 7.4 ${y} ${z}
    create_atoms 2 single 7.4 8 ${z}
    create_atoms 2 single 7.4 8 8
Created 1 atoms
  using lattice units in orthogonal box = (0 0 0) to (50.396842 50.396842 50.396842)
  create_atoms CPU = 0.001 seconds
    variable x0 equal ${x}
    variable x0 equal 7.4
    variable step equal ${step} + 1
    variable step equal 8 + 1
jump SELF loop_bead
if "${step} > ${N}" then "jump SELF end_inner"
    variable x equal ${x0} + ${dbead}
    variable x equal 7.4 + ${dbead}
    variable x equal 7.4 + 0.3
    variable y equal ${y0} + 1.5*${Ny}
    variable y equal 5 + 1.5*${Ny}
    variable y equal 5 + 1.5*2
    variable z equal ${z0} + 1.5*${Nz}
    variable z equal 6.5 + 1.5*${Nz}
    variable z equal 6.5 + 1.5*1
    create_atoms 2 single ${x} ${y} ${z}
    create_atoms 2 single 7.7 ${y} ${z}
    create_atoms 2 single 7.7 8 ${z}
    create_atoms 2 single 7.7 8 8
Created 1 atoms
  using lattice units in orthogonal box = (0 0 0) to (50.396842 50.396842 50.396842)
  create_atoms CPU = 0.000 seconds
    variable x0 equal ${x}
    variable x0 equal 7.7
    variable step equal ${step} + 1
    variable step equal 9 + 1
jump SELF loop_bead
if "${step} > ${N}" then "jump SELF end_inner"
    variable x equal ${x0} + ${dbead}
    variable x equal 7.7 + ${dbead}
    variable x equal 7.7 + 0.3
    variable y equal ${y0} + 1.5*${Ny}
    variable y equal 5 + 1.5*${Ny}
    variable y equal 5 + 1.5*2
    variable z equal ${z0} + 1.5*${Nz}
    variable z equal 6.5 + 1.5*${Nz}
    variable z equal 6.5 + 1.5*1
    create_atoms 2 single ${x} ${y} ${z}
    create_atoms 2 single 8 ${y} ${z}
    create_atoms 2 single 8 8 ${z}
    create_atoms 2 single 8 8 8
Created 1 atoms
  using lattice units in orthogonal box = (0 0 0) to (50.396842 50.396842 50.396842)
  create_atoms CPU = 0.000 seconds
    variable x0 equal ${x}
    variable x0 equal 8
    variable step equal ${step} + 1
    variable step equal 10 + 1
jump SELF loop_bead
if "${step} > ${N}" then "jump SELF end_inner"
    variable x equal ${x0} + ${dbead}
    variable x equal 8 + ${dbead}
    variable x equal 8 + 0.3
    variable y equal ${y0} + 1.5*${Ny}
    variable y equal 5 + 1.5*${Ny}
    variable y equal 5 + 1.5*2
    variable z equal ${z0} + 1.5*${Nz}
    variable z equal 6.5 + 1.5*${Nz}
    variable z equal 6.5 + 1.5*1
    create_atoms 2 single ${x} ${y} ${z}
    create_atoms 2 single 8.3 ${y} ${z}
    create_atoms 2 single 8.3 8 ${z}
    create_atoms 2 single 8.3 8 8
Created 1 atoms
  using lattice units in orthogonal box = (0 0 0) to (50.396842 50.396842 50.396842)
  create_atoms CPU = 0.001 seconds
    variable x0 equal ${x}
    variable x0 equal 8.3
    variable step equal ${step} + 1
    variable step equal 11 + 1
jump SELF loop_bead
if "${step} > ${N}" then "jump SELF end_inner"
    variable x equal ${x0} + ${dbead}
    variable x equal 8.3 + ${dbead}
    variable x equal 8.3 + 0.3
    variable y equal ${y0} + 1.5*${Ny}
    variable y equal 5 + 1.5*${Ny}
    variable y equal 5 + 1.5*2
    variable z equal ${z0} + 1.5*${Nz}
    variable z equal 6.5 + 1.5*${Nz}
    variable z equal 6.5 + 1.5*1
    create_atoms 2 single ${x} ${y} ${z}
    create_atoms 2 single 8.6 ${y} ${z}
    create_atoms 2 single 8.6 8 ${z}
    create_atoms 2 single 8.6 8 8
Created 1 atoms
  using lattice units in orthogonal box = (0 0 0) to (50.396842 50.396842 50.396842)
  create_atoms CPU = 0.000 seconds
    variable x0 equal ${x}
    variable x0 equal 8.6
    variable step equal ${step} + 1
    variable step equal 12 + 1
jump SELF loop_bead
if "${step} > ${N}" then "jump SELF end_inner"
    variable x equal ${x0} + ${dbead}
    variable x equal 8.6 + ${dbead}
    variable x equal 8.6 + 0.3
    variable y equal ${y0} + 1.5*${Ny}
    variable y equal 5 + 1.5*${Ny}
    variable y equal 5 + 1.5*2
    variable z equal ${z0} + 1.5*${Nz}
    variable z equal 6.5 + 1.5*${Nz}
    variable z equal 6.5 + 1.5*1
    create_atoms 2 single ${x} ${y} ${z}
    create_atoms 2 single 8.9 ${y} ${z}
    create_atoms 2 single 8.9 8 ${z}
    create_atoms 2 single 8.9 8 8
Created 1 atoms
  using lattice units in orthogonal box = (0 0 0) to (50.396842 50.396842 50.396842)
  create_atoms CPU = 0.001 seconds
    variable x0 equal ${x}
    variable x0 equal 8.9
    variable step equal ${step} + 1
    variable step equal 13 + 1
jump SELF loop_bead
if "${step} > ${N}" then "jump SELF end_inner"
    variable x equal ${x0} + ${dbead}
    variable x equal 8.9 + ${dbead}
    variable x equal 8.9 + 0.3
    variable y equal ${y0} + 1.5*${Ny}
    variable y equal 5 + 1.5*${Ny}
    variable y equal 5 + 1.5*2
    variable z equal ${z0} + 1.5*${Nz}
    variable z equal 6.5 + 1.5*${Nz}
    variable z equal 6.5 + 1.5*1
    create_atoms 2 single ${x} ${y} ${z}
    create_atoms 2 single 9.2 ${y} ${z}
    create_atoms 2 single 9.2 8 ${z}
    create_atoms 2 single 9.2 8 8
Created 1 atoms
  using lattice units in orthogonal box = (0 0 0) to (50.396842 50.396842 50.396842)
  create_atoms CPU = 0.001 seconds
    variable x0 equal ${x}
    variable x0 equal 9.2
    variable step equal ${step} + 1
    variable step equal 14 + 1
jump SELF loop_bead
if "${step} > ${N}" then "jump SELF end_inner"
    variable x equal ${x0} + ${dbead}
    variable x equal 9.2 + ${dbead}
    variable x equal 9.2 + 0.3
    variable y equal ${y0} + 1.5*${Ny}
    variable y equal 5 + 1.5*${Ny}
    variable y equal 5 + 1.5*2
    variable z equal ${z0} + 1.5*${Nz}
    variable z equal 6.5 + 1.5*${Nz}
    variable z equal 6.5 + 1.5*1
    create_atoms 2 single ${x} ${y} ${z}
    create_atoms 2 single 9.5 ${y} ${z}
    create_atoms 2 single 9.5 8 ${z}
    create_atoms 2 single 9.5 8 8
Created 1 atoms
  using lattice units in orthogonal box = (0 0 0) to (50.396842 50.396842 50.396842)
  create_atoms CPU = 0.000 seconds
    variable x0 equal ${x}
    variable x0 equal 9.5
    variable step equal ${step} + 1
    variable step equal 15 + 1
jump SELF loop_bead
if "${step} > ${N}" then "jump SELF end_inner"
    variable x equal ${x0} + ${dbead}
    variable x equal 9.5 + ${dbead}
    variable x equal 9.5 + 0.3
    variable y equal ${y0} + 1.5*${Ny}
    variable y equal 5 + 1.5*${Ny}
    variable y equal 5 + 1.5*2
    variable z equal ${z0} + 1.5*${Nz}
    variable z equal 6.5 + 1.5*${Nz}
    variable z equal 6.5 + 1.5*1
    create_atoms 2 single ${x} ${y} ${z}
    create_atoms 2 single 9.8 ${y} ${z}
    create_atoms 2 single 9.8 8 ${z}
    create_atoms 2 single 9.8 8 8
Created 1 atoms
  using lattice units in orthogonal box = (0 0 0) to (50.396842 50.396842 50.396842)
  create_atoms CPU = 0.000 seconds
    variable x0 equal ${x}
    variable x0 equal 9.8
    variable step equal ${step} + 1
    variable step equal 16 + 1
jump SELF loop_bead
if "${step} > ${N}" then "jump SELF end_inner"
    variable x equal ${x0} + ${dbead}
    variable x equal 9.8 + ${dbead}
    variable x equal 9.8 + 0.3
    variable y equal ${y0} + 1.5*${Ny}
    variable y equal 5 + 1.5*${Ny}
    variable y equal 5 + 1.5*2
    variable z equal ${z0} + 1.5*${Nz}
    variable z equal 6.5 + 1.5*${Nz}
    variable z equal 6.5 + 1.5*1
    create_atoms 2 single ${x} ${y} ${z}
    create_atoms 2 single 10.1 ${y} ${z}
    create_atoms 2 single 10.1 8 ${z}
    create_atoms 2 single 10.1 8 8
Created 1 atoms
  using lattice units in orthogonal box = (0 0 0) to (50.396842 50.396842 50.396842)
  create_atoms CPU = 0.001 seconds
    variable x0 equal ${x}
    variable x0 equal 10.1
    variable step equal ${step} + 1
    variable step equal 17 + 1
jump SELF loop_bead
if "${step} > ${N}" then "jump SELF end_inner"
    variable x equal ${x0} + ${dbead}
    variable x equal 10.1 + ${dbead}
    variable x equal 10.1 + 0.3
    variable y equal ${y0} + 1.5*${Ny}
    variable y equal 5 + 1.5*${Ny}
    variable y equal 5 + 1.5*2
    variable z equal ${z0} + 1.5*${Nz}
    variable z equal 6.5 + 1.5*${Nz}
    variable z equal 6.5 + 1.5*1
    create_atoms 2 single ${x} ${y} ${z}
    create_atoms 2 single 10.4 ${y} ${z}
    create_atoms 2 single 10.4 8 ${z}
    create_atoms 2 single 10.4 8 8
Created 1 atoms
  using lattice units in orthogonal box = (0 0 0) to (50.396842 50.396842 50.396842)
  create_atoms CPU = 0.000 seconds
    variable x0 equal ${x}
    variable x0 equal 10.4
    variable step equal ${step} + 1
    variable step equal 18 + 1
jump SELF loop_bead
if "${step} > ${N}" then "jump SELF end_inner"
    variable x equal ${x0} + ${dbead}
    variable x equal 10.4 + ${dbead}
    variable x equal 10.4 + 0.3
    variable y equal ${y0} + 1.5*${Ny}
    variable y equal 5 + 1.5*${Ny}
    variable y equal 5 + 1.5*2
    variable z equal ${z0} + 1.5*${Nz}
    variable z equal 6.5 + 1.5*${Nz}
    variable z equal 6.5 + 1.5*1
    create_atoms 2 single ${x} ${y} ${z}
    create_atoms 2 single 10.7 ${y} ${z}
    create_atoms 2 single 10.7 8 ${z}
    create_atoms 2 single 10.7 8 8
Created 1 atoms
  using lattice units in orthogonal box = (0 0 0) to (50.396842 50.396842 50.396842)
  create_atoms CPU = 0.000 seconds
    variable x0 equal ${x}
    variable x0 equal 10.7
    variable step equal ${step} + 1
    variable step equal 19 + 1
jump SELF loop_bead
if "${step} > ${N}" then "jump SELF end_inner"
jump SELF end_inner
variable x0 equal 5.0
variable y0 equal 5.0
variable step equal 1
next Ny
jump SELF loop_y
label loop_bead
if "${step} > ${N}" then "jump SELF end_inner"
    variable x equal ${x0} + ${dbead}
    variable x equal 5 + ${dbead}
    variable x equal 5 + 0.3
    variable y equal ${y0} + 1.5*${Ny}
    variable y equal 5 + 1.5*${Ny}
    variable y equal 5 + 1.5*3
    variable z equal ${z0} + 1.5*${Nz}
    variable z equal 6.5 + 1.5*${Nz}
    variable z equal 6.5 + 1.5*1
    create_atoms 2 single ${x} ${y} ${z}
    create_atoms 2 single 5.3 ${y} ${z}
    create_atoms 2 single 5.3 9.5 ${z}
    create_atoms 2 single 5.3 9.5 8
Created 1 atoms
  using lattice units in orthogonal box = (0 0 0) to (50.396842 50.396842 50.396842)
  create_atoms CPU = 0.001 seconds
    variable x0 equal ${x}
    variable x0 equal 5.3
    variable step equal ${step} + 1
    variable step equal 1 + 1
jump SELF loop_bead
if "${step} > ${N}" then "jump SELF end_inner"
    variable x equal ${x0} + ${dbead}
    variable x equal 5.3 + ${dbead}
    variable x equal 5.3 + 0.3
    variable y equal ${y0} + 1.5*${Ny}
    variable y equal 5 + 1.5*${Ny}
    variable y equal 5 + 1.5*3
    variable z equal ${z0} + 1.5*${Nz}
    variable z equal 6.5 + 1.5*${Nz}
    variable z equal 6.5 + 1.5*1
    create_atoms 2 single ${x} ${y} ${z}
    create_atoms 2 single 5.6 ${y} ${z}
    create_atoms 2 single 5.6 9.5 ${z}
    create_atoms 2 single 5.6 9.5 8
Created 1 atoms
  using lattice units in orthogonal box = (0 0 0) to (50.396842 50.396842 50.396842)
  create_atoms CPU = 0.000 seconds
    variable x0 equal ${x}
    variable x0 equal 5.6
    variable step equal ${step} + 1
    variable step equal 2 + 1
jump SELF loop_bead
if "${step} > ${N}" then "jump SELF end_inner"
    variable x equal ${x0} + ${dbead}
    variable x equal 5.6 + ${dbead}
    variable x equal 5.6 + 0.3
    variable y equal ${y0} + 1.5*${Ny}
    variable y equal 5 + 1.5*${Ny}
    variable y equal 5 + 1.5*3
    variable z equal ${z0} + 1.5*${Nz}
    variable z equal 6.5 + 1.5*${Nz}
    variable z equal 6.5 + 1.5*1
    create_atoms 2 single ${x} ${y} ${z}
    create_atoms 2 single 5.9 ${y} ${z}
    create_atoms 2 single 5.9 9.5 ${z}
    create_atoms 2 single 5.9 9.5 8
Created 1 atoms
  using lattice units in orthogonal box = (0 0 0) to (50.396842 50.396842 50.396842)
  create_atoms CPU = 0.000 seconds
    variable x0 equal ${x}
    variable x0 equal 5.9
    variable step equal ${step} + 1
    variable step equal 3 + 1
jump SELF loop_bead
if "${step} > ${N}" then "jump SELF end_inner"
    variable x equal ${x0} + ${dbead}
    variable x equal 5.9 + ${dbead}
    variable x equal 5.9 + 0.3
    variable y equal ${y0} + 1.5*${Ny}
    variable y equal 5 + 1.5*${Ny}
    variable y equal 5 + 1.5*3
    variable z equal ${z0} + 1.5*${Nz}
    variable z equal 6.5 + 1.5*${Nz}
    variable z equal 6.5 + 1.5*1
    create_atoms 2 single ${x} ${y} ${z}
    create_atoms 2 single 6.2 ${y} ${z}
    create_atoms 2 single 6.2 9.5 ${z}
    create_atoms 2 single 6.2 9.5 8
Created 1 atoms
  using lattice units in orthogonal box = (0 0 0) to (50.396842 50.396842 50.396842)
  create_atoms CPU = 0.000 seconds
    variable x0 equal ${x}
    variable x0 equal 6.2
    variable step equal ${step} + 1
    variable step equal 4 + 1
jump SELF loop_bead
if "${step} > ${N}" then "jump SELF end_inner"
    variable x equal ${x0} + ${dbead}
    variable x equal 6.2 + ${dbead}
    variable x equal 6.2 + 0.3
    variable y equal ${y0} + 1.5*${Ny}
    variable y equal 5 + 1.5*${Ny}
    variable y equal 5 + 1.5*3
    variable z equal ${z0} + 1.5*${Nz}
    variable z equal 6.5 + 1.5*${Nz}
    variable z equal 6.5 + 1.5*1
    create_atoms 2 single ${x} ${y} ${z}
    create_atoms 2 single 6.5 ${y} ${z}
    create_atoms 2 single 6.5 9.5 ${z}
    create_atoms 2 single 6.5 9.5 8
Created 1 atoms
  using lattice units in orthogonal box = (0 0 0) to (50.396842 50.396842 50.396842)
  create_atoms CPU = 0.000 seconds
    variable x0 equal ${x}
    variable x0 equal 6.5
    variable step equal ${step} + 1
    variable step equal 5 + 1
jump SELF loop_bead
if "${step} > ${N}" then "jump SELF end_inner"
    variable x equal ${x0} + ${dbead}
    variable x equal 6.5 + ${dbead}
    variable x equal 6.5 + 0.3
    variable y equal ${y0} + 1.5*${Ny}
    variable y equal 5 + 1.5*${Ny}
    variable y equal 5 + 1.5*3
    variable z equal ${z0} + 1.5*${Nz}
    variable z equal 6.5 + 1.5*${Nz}
    variable z equal 6.5 + 1.5*1
    create_atoms 2 single ${x} ${y} ${z}
    create_atoms 2 single 6.8 ${y} ${z}
    create_atoms 2 single 6.8 9.5 ${z}
    create_atoms 2 single 6.8 9.5 8
Created 1 atoms
  using lattice units in orthogonal box = (0 0 0) to (50.396842 50.396842 50.396842)
  create_atoms CPU = 0.001 seconds
    variable x0 equal ${x}
    variable x0 equal 6.8
    variable step equal ${step} + 1
    variable step equal 6 + 1
jump SELF loop_bead
if "${step} > ${N}" then "jump SELF end_inner"
    variable x equal ${x0} + ${dbead}
    variable x equal 6.8 + ${dbead}
    variable x equal 6.8 + 0.3
    variable y equal ${y0} + 1.5*${Ny}
    variable y equal 5 + 1.5*${Ny}
    variable y equal 5 + 1.5*3
    variable z equal ${z0} + 1.5*${Nz}
    variable z equal 6.5 + 1.5*${Nz}
    variable z equal 6.5 + 1.5*1
    create_atoms 2 single ${x} ${y} ${z}
    create_atoms 2 single 7.1 ${y} ${z}
    create_atoms 2 single 7.1 9.5 ${z}
    create_atoms 2 single 7.1 9.5 8
Created 1 atoms
  using lattice units in orthogonal box = (0 0 0) to (50.396842 50.396842 50.396842)
  create_atoms CPU = 0.000 seconds
    variable x0 equal ${x}
    variable x0 equal 7.1
    variable step equal ${step} + 1
    variable step equal 7 + 1
jump SELF loop_bead
if "${step} > ${N}" then "jump SELF end_inner"
    variable x equal ${x0} + ${dbead}
    variable x equal 7.1 + ${dbead}
    variable x equal 7.1 + 0.3
    variable y equal ${y0} + 1.5*${Ny}
    variable y equal 5 + 1.5*${Ny}
    variable y equal 5 + 1.5*3
    variable z equal ${z0} + 1.5*${Nz}
    variable z equal 6.5 + 1.5*${Nz}
    variable z equal 6.5 + 1.5*1
    create_atoms 2 single ${x} ${y} ${z}
    create_atoms 2 single 7.4 ${y} ${z}
    create_atoms 2 single 7.4 9.5 ${z}
    create_atoms 2 single 7.4 9.5 8
Created 1 atoms
  using lattice units in orthogonal box = (0 0 0) to (50.396842 50.396842 50.396842)
  create_atoms CPU = 0.000 seconds
    variable x0 equal ${x}
    variable x0 equal 7.4
    variable step equal ${step} + 1
    variable step equal 8 + 1
jump SELF loop_bead
if "${step} > ${N}" then "jump SELF end_inner"
    variable x equal ${x0} + ${dbead}
    variable x equal 7.4 + ${dbead}
    variable x equal 7.4 + 0.3
    variable y equal ${y0} + 1.5*${Ny}
    variable y equal 5 + 1.5*${Ny}
    variable y equal 5 + 1.5*3
    variable z equal ${z0} + 1.5*${Nz}
    variable z equal 6.5 + 1.5*${Nz}
    variable z equal 6.5 + 1.5*1
    create_atoms 2 single ${x} ${y} ${z}
    create_atoms 2 single 7.7 ${y} ${z}
    create_atoms 2 single 7.7 9.5 ${z}
    create_atoms 2 single 7.7 9.5 8
Created 1 atoms
  using lattice units in orthogonal box = (0 0 0) to (50.396842 50.396842 50.396842)
  create_atoms CPU = 0.001 seconds
    variable x0 equal ${x}
    variable x0 equal 7.7
    variable step equal ${step} + 1
    variable step equal 9 + 1
jump SELF loop_bead
if "${step} > ${N}" then "jump SELF end_inner"
    variable x equal ${x0} + ${dbead}
    variable x equal 7.7 + ${dbead}
    variable x equal 7.7 + 0.3
    variable y equal ${y0} + 1.5*${Ny}
    variable y equal 5 + 1.5*${Ny}
    variable y equal 5 + 1.5*3
    variable z equal ${z0} + 1.5*${Nz}
    variable z equal 6.5 + 1.5*${Nz}
    variable z equal 6.5 + 1.5*1
    create_atoms 2 single ${x} ${y} ${z}
    create_atoms 2 single 8 ${y} ${z}
    create_atoms 2 single 8 9.5 ${z}
    create_atoms 2 single 8 9.5 8
Created 1 atoms
  using lattice units in orthogonal box = (0 0 0) to (50.396842 50.396842 50.396842)
  create_atoms CPU = 0.000 seconds
    variable x0 equal ${x}
    variable x0 equal 8
    variable step equal ${step} + 1
    variable step equal 10 + 1
jump SELF loop_bead
if "${step} > ${N}" then "jump SELF end_inner"
    variable x equal ${x0} + ${dbead}
    variable x equal 8 + ${dbead}
    variable x equal 8 + 0.3
    variable y equal ${y0} + 1.5*${Ny}
    variable y equal 5 + 1.5*${Ny}
    variable y equal 5 + 1.5*3
    variable z equal ${z0} + 1.5*${Nz}
    variable z equal 6.5 + 1.5*${Nz}
    variable z equal 6.5 + 1.5*1
    create_atoms 2 single ${x} ${y} ${z}
    create_atoms 2 single 8.3 ${y} ${z}
    create_atoms 2 single 8.3 9.5 ${z}
    create_atoms 2 single 8.3 9.5 8
Created 1 atoms
  using lattice units in orthogonal box = (0 0 0) to (50.396842 50.396842 50.396842)
  create_atoms CPU = 0.001 seconds
    variable x0 equal ${x}
    variable x0 equal 8.3
    variable step equal ${step} + 1
    variable step equal 11 + 1
jump SELF loop_bead
if "${step} > ${N}" then "jump SELF end_inner"
    variable x equal ${x0} + ${dbead}
    variable x equal 8.3 + ${dbead}
    variable x equal 8.3 + 0.3
    variable y equal ${y0} + 1.5*${Ny}
    variable y equal 5 + 1.5*${Ny}
    variable y equal 5 + 1.5*3
    variable z equal ${z0} + 1.5*${Nz}
    variable z equal 6.5 + 1.5*${Nz}
    variable z equal 6.5 + 1.5*1
    create_atoms 2 single ${x} ${y} ${z}
    create_atoms 2 single 8.6 ${y} ${z}
    create_atoms 2 single 8.6 9.5 ${z}
    create_atoms 2 single 8.6 9.5 8
Created 1 atoms
  using lattice units in orthogonal box = (0 0 0) to (50.396842 50.396842 50.396842)
  create_atoms CPU = 0.000 seconds
    variable x0 equal ${x}
    variable x0 equal 8.6
    variable step equal ${step} + 1
    variable step equal 12 + 1
jump SELF loop_bead
if "${step} > ${N}" then "jump SELF end_inner"
    variable x equal ${x0} + ${dbead}
    variable x equal 8.6 + ${dbead}
    variable x equal 8.6 + 0.3
    variable y equal ${y0} + 1.5*${Ny}
    variable y equal 5 + 1.5*${Ny}
    variable y equal 5 + 1.5*3
    variable z equal ${z0} + 1.5*${Nz}
    variable z equal 6.5 + 1.5*${Nz}
    variable z equal 6.5 + 1.5*1
    create_atoms 2 single ${x} ${y} ${z}
    create_atoms 2 single 8.9 ${y} ${z}
    create_atoms 2 single 8.9 9.5 ${z}
    create_atoms 2 single 8.9 9.5 8
Created 1 atoms
  using lattice units in orthogonal box = (0 0 0) to (50.396842 50.396842 50.396842)
  create_atoms CPU = 0.000 seconds
    variable x0 equal ${x}
    variable x0 equal 8.9
    variable step equal ${step} + 1
    variable step equal 13 + 1
jump SELF loop_bead
if "${step} > ${N}" then "jump SELF end_inner"
    variable x equal ${x0} + ${dbead}
    variable x equal 8.9 + ${dbead}
    variable x equal 8.9 + 0.3
    variable y equal ${y0} + 1.5*${Ny}
    variable y equal 5 + 1.5*${Ny}
    variable y equal 5 + 1.5*3
    variable z equal ${z0} + 1.5*${Nz}
    variable z equal 6.5 + 1.5*${Nz}
    variable z equal 6.5 + 1.5*1
    create_atoms 2 single ${x} ${y} ${z}
    create_atoms 2 single 9.2 ${y} ${z}
    create_atoms 2 single 9.2 9.5 ${z}
    create_atoms 2 single 9.2 9.5 8
Created 1 atoms
  using lattice units in orthogonal box = (0 0 0) to (50.396842 50.396842 50.396842)
  create_atoms CPU = 0.001 seconds
    variable x0 equal ${x}
    variable x0 equal 9.2
    variable step equal ${step} + 1
    variable step equal 14 + 1
jump SELF loop_bead
if "${step} > ${N}" then "jump SELF end_inner"
    variable x equal ${x0} + ${dbead}
    variable x equal 9.2 + ${dbead}
    variable x equal 9.2 + 0.3
    variable y equal ${y0} + 1.5*${Ny}
    variable y equal 5 + 1.5*${Ny}
    variable y equal 5 + 1.5*3
    variable z equal ${z0} + 1.5*${Nz}
    variable z equal 6.5 + 1.5*${Nz}
    variable z equal 6.5 + 1.5*1
    create_atoms 2 single ${x} ${y} ${z}
    create_atoms 2 single 9.5 ${y} ${z}
    create_atoms 2 single 9.5 9.5 ${z}
    create_atoms 2 single 9.5 9.5 8
Created 1 atoms
  using lattice units in orthogonal box = (0 0 0) to (50.396842 50.396842 50.396842)
  create_atoms CPU = 0.000 seconds
    variable x0 equal ${x}
    variable x0 equal 9.5
    variable step equal ${step} + 1
    variable step equal 15 + 1
jump SELF loop_bead
if "${step} > ${N}" then "jump SELF end_inner"
    variable x equal ${x0} + ${dbead}
    variable x equal 9.5 + ${dbead}
    variable x equal 9.5 + 0.3
    variable y equal ${y0} + 1.5*${Ny}
    variable y equal 5 + 1.5*${Ny}
    variable y equal 5 + 1.5*3
    variable z equal ${z0} + 1.5*${Nz}
    variable z equal 6.5 + 1.5*${Nz}
    variable z equal 6.5 + 1.5*1
    create_atoms 2 single ${x} ${y} ${z}
    create_atoms 2 single 9.8 ${y} ${z}
    create_atoms 2 single 9.8 9.5 ${z}
    create_atoms 2 single 9.8 9.5 8
Created 1 atoms
  using lattice units in orthogonal box = (0 0 0) to (50.396842 50.396842 50.396842)
  create_atoms CPU = 0.000 seconds
    variable x0 equal ${x}
    variable x0 equal 9.8
    variable step equal ${step} + 1
    variable step equal 16 + 1
jump SELF loop_bead
if "${step} > ${N}" then "jump SELF end_inner"
    variable x equal ${x0} + ${dbead}
    variable x equal 9.8 + ${dbead}
    variable x equal 9.8 + 0.3
    variable y equal ${y0} + 1.5*${Ny}
    variable y equal 5 + 1.5*${Ny}
    variable y equal 5 + 1.5*3
    variable z equal ${z0} + 1.5*${Nz}
    variable z equal 6.5 + 1.5*${Nz}
    variable z equal 6.5 + 1.5*1
    create_atoms 2 single ${x} ${y} ${z}
    create_atoms 2 single 10.1 ${y} ${z}
    create_atoms 2 single 10.1 9.5 ${z}
    create_atoms 2 single 10.1 9.5 8
Created 1 atoms
  using lattice units in orthogonal box = (0 0 0) to (50.396842 50.396842 50.396842)
  create_atoms CPU = 0.001 seconds
    variable x0 equal ${x}
    variable x0 equal 10.1
    variable step equal ${step} + 1
    variable step equal 17 + 1
jump SELF loop_bead
if "${step} > ${N}" then "jump SELF end_inner"
    variable x equal ${x0} + ${dbead}
    variable x equal 10.1 + ${dbead}
    variable x equal 10.1 + 0.3
    variable y equal ${y0} + 1.5*${Ny}
    variable y equal 5 + 1.5*${Ny}
    variable y equal 5 + 1.5*3
    variable z equal ${z0} + 1.5*${Nz}
    variable z equal 6.5 + 1.5*${Nz}
    variable z equal 6.5 + 1.5*1
    create_atoms 2 single ${x} ${y} ${z}
    create_atoms 2 single 10.4 ${y} ${z}
    create_atoms 2 single 10.4 9.5 ${z}
    create_atoms 2 single 10.4 9.5 8
Created 1 atoms
  using lattice units in orthogonal box = (0 0 0) to (50.396842 50.396842 50.396842)
  create_atoms CPU = 0.000 seconds
    variable x0 equal ${x}
    variable x0 equal 10.4
    variable step equal ${step} + 1
    variable step equal 18 + 1
jump SELF loop_bead
if "${step} > ${N}" then "jump SELF end_inner"
    variable x equal ${x0} + ${dbead}
    variable x equal 10.4 + ${dbead}
    variable x equal 10.4 + 0.3
    variable y equal ${y0} + 1.5*${Ny}
    variable y equal 5 + 1.5*${Ny}
    variable y equal 5 + 1.5*3
    variable z equal ${z0} + 1.5*${Nz}
    variable z equal 6.5 + 1.5*${Nz}
    variable z equal 6.5 + 1.5*1
    create_atoms 2 single ${x} ${y} ${z}
    create_atoms 2 single 10.7 ${y} ${z}
    create_atoms 2 single 10.7 9.5 ${z}
    create_atoms 2 single 10.7 9.5 8
Created 1 atoms
  using lattice units in orthogonal box = (0 0 0) to (50.396842 50.396842 50.396842)
  create_atoms CPU = 0.001 seconds
    variable x0 equal ${x}
    variable x0 equal 10.7
    variable step equal ${step} + 1
    variable step equal 19 + 1
jump SELF loop_bead
if "${step} > ${N}" then "jump SELF end_inner"
jump SELF end_inner
variable x0 equal 5.0
variable y0 equal 5.0
variable step equal 1
next Ny
jump SELF loop_y
label loop_bead
if "${step} > ${N}" then "jump SELF end_inner"
    variable x equal ${x0} + ${dbead}
    variable x equal 5 + ${dbead}
    variable x equal 5 + 0.3
    variable y equal ${y0} + 1.5*${Ny}
    variable y equal 5 + 1.5*${Ny}
    variable y equal 5 + 1.5*4
    variable z equal ${z0} + 1.5*${Nz}
    variable z equal 6.5 + 1.5*${Nz}
    variable z equal 6.5 + 1.5*1
    create_atoms 2 single ${x} ${y} ${z}
    create_atoms 2 single 5.3 ${y} ${z}
    create_atoms 2 single 5.3 11 ${z}
    create_atoms 2 single 5.3 11 8
Created 1 atoms
  using lattice units in orthogonal box = (0 0 0) to (50.396842 50.396842 50.396842)
  create_atoms CPU = 0.000 seconds
    variable x0 equal ${x}
    variable x0 equal 5.3
    variable step equal ${step} + 1
    variable step equal 1 + 1
jump SELF loop_bead
if "${step} > ${N}" then "jump SELF end_inner"
    variable x equal ${x0} + ${dbead}
    variable x equal 5.3 + ${dbead}
    variable x equal 5.3 + 0.3
    variable y equal ${y0} + 1.5*${Ny}
    variable y equal 5 + 1.5*${Ny}
    variable y equal 5 + 1.5*4
    variable z equal ${z0} + 1.5*${Nz}
    variable z equal 6.5 + 1.5*${Nz}
    variable z equal 6.5 + 1.5*1
    create_atoms 2 single ${x} ${y} ${z}
    create_atoms 2 single 5.6 ${y} ${z}
    create_atoms 2 single 5.6 11 ${z}
    create_atoms 2 single 5.6 11 8
Created 1 atoms
  using lattice units in orthogonal box = (0 0 0) to (50.396842 50.396842 50.396842)
  create_atoms CPU = 0.000 seconds
    variable x0 equal ${x}
    variable x0 equal 5.6
    variable step equal ${step} + 1
    variable step equal 2 + 1
jump SELF loop_bead
if "${step} > ${N}" then "jump SELF end_inner"
    variable x equal ${x0} + ${dbead}
    variable x equal 5.6 + ${dbead}
    variable x equal 5.6 + 0.3
    variable y equal ${y0} + 1.5*${Ny}
    variable y equal 5 + 1.5*${Ny}
    variable y equal 5 + 1.5*4
    variable z equal ${z0} + 1.5*${Nz}
    variable z equal 6.5 + 1.5*${Nz}
    variable z equal 6.5 + 1.5*1
    create_atoms 2 single ${x} ${y} ${z}
    create_atoms 2 single 5.9 ${y} ${z}
    create_atoms 2 single 5.9 11 ${z}
    create_atoms 2 single 5.9 11 8
Created 1 atoms
  using lattice units in orthogonal box = (0 0 0) to (50.396842 50.396842 50.396842)
  create_atoms CPU = 0.001 seconds
    variable x0 equal ${x}
    variable x0 equal 5.9
    variable step equal ${step} + 1
    variable step equal 3 + 1
jump SELF loop_bead
if "${step} > ${N}" then "jump SELF end_inner"
    variable x equal ${x0} + ${dbead}
    variable x equal 5.9 + ${dbead}
    variable x equal 5.9 + 0.3
    variable y equal ${y0} + 1.5*${Ny}
    variable y equal 5 + 1.5*${Ny}
    variable y equal 5 + 1.5*4
    variable z equal ${z0} + 1.5*${Nz}
    variable z equal 6.5 + 1.5*${Nz}
    variable z equal 6.5 + 1.5*1
    create_atoms 2 single ${x} ${y} ${z}
    create_atoms 2 single 6.2 ${y} ${z}
    create_atoms 2 single 6.2 11 ${z}
    create_atoms 2 single 6.2 11 8
Created 1 atoms
  using lattice units in orthogonal box = (0 0 0) to (50.396842 50.396842 50.396842)
  create_atoms CPU = 0.000 seconds
    variable x0 equal ${x}
    variable x0 equal 6.2
    variable step equal ${step} + 1
    variable step equal 4 + 1
jump SELF loop_bead
if "${step} > ${N}" then "jump SELF end_inner"
    variable x equal ${x0} + ${dbead}
    variable x equal 6.2 + ${dbead}
    variable x equal 6.2 + 0.3
    variable y equal ${y0} + 1.5*${Ny}
    variable y equal 5 + 1.5*${Ny}
    variable y equal 5 + 1.5*4
    variable z equal ${z0} + 1.5*${Nz}
    variable z equal 6.5 + 1.5*${Nz}
    variable z equal 6.5 + 1.5*1
    create_atoms 2 single ${x} ${y} ${z}
    create_atoms 2 single 6.5 ${y} ${z}
    create_atoms 2 single 6.5 11 ${z}
    create_atoms 2 single 6.5 11 8
Created 1 atoms
  using lattice units in orthogonal box = (0 0 0) to (50.396842 50.396842 50.396842)
  create_atoms CPU = 0.000 seconds
    variable x0 equal ${x}
    variable x0 equal 6.5
    variable step equal ${step} + 1
    variable step equal 5 + 1
jump SELF loop_bead
if "${step} > ${N}" then "jump SELF end_inner"
    variable x equal ${x0} + ${dbead}
    variable x equal 6.5 + ${dbead}
    variable x equal 6.5 + 0.3
    variable y equal ${y0} + 1.5*${Ny}
    variable y equal 5 + 1.5*${Ny}
    variable y equal 5 + 1.5*4
    variable z equal ${z0} + 1.5*${Nz}
    variable z equal 6.5 + 1.5*${Nz}
    variable z equal 6.5 + 1.5*1
    create_atoms 2 single ${x} ${y} ${z}
    create_atoms 2 single 6.8 ${y} ${z}
    create_atoms 2 single 6.8 11 ${z}
    create_atoms 2 single 6.8 11 8
Created 1 atoms
  using lattice units in orthogonal box = (0 0 0) to (50.396842 50.396842 50.396842)
  create_atoms CPU = 0.001 seconds
    variable x0 equal ${x}
    variable x0 equal 6.8
    variable step equal ${step} + 1
    variable step equal 6 + 1
jump SELF loop_bead
if "${step} > ${N}" then "jump SELF end_inner"
    variable x equal ${x0} + ${dbead}
    variable x equal 6.8 + ${dbead}
    variable x equal 6.8 + 0.3
    variable y equal ${y0} + 1.5*${Ny}
    variable y equal 5 + 1.5*${Ny}
    variable y equal 5 + 1.5*4
    variable z equal ${z0} + 1.5*${Nz}
    variable z equal 6.5 + 1.5*${Nz}
    variable z equal 6.5 + 1.5*1
    create_atoms 2 single ${x} ${y} ${z}
    create_atoms 2 single 7.1 ${y} ${z}
    create_atoms 2 single 7.1 11 ${z}
    create_atoms 2 single 7.1 11 8
Created 1 atoms
  using lattice units in orthogonal box = (0 0 0) to (50.396842 50.396842 50.396842)
  create_atoms CPU = 0.000 seconds
    variable x0 equal ${x}
    variable x0 equal 7.1
    variable step equal ${step} + 1
    variable step equal 7 + 1
jump SELF loop_bead
if "${step} > ${N}" then "jump SELF end_inner"
    variable x equal ${x0} + ${dbead}
    variable x equal 7.1 + ${dbead}
    variable x equal 7.1 + 0.3
    variable y equal ${y0} + 1.5*${Ny}
    variable y equal 5 + 1.5*${Ny}
    variable y equal 5 + 1.5*4
    variable z equal ${z0} + 1.5*${Nz}
    variable z equal 6.5 + 1.5*${Nz}
    variable z equal 6.5 + 1.5*1
    create_atoms 2 single ${x} ${y} ${z}
    create_atoms 2 single 7.4 ${y} ${z}
    create_atoms 2 single 7.4 11 ${z}
    create_atoms 2 single 7.4 11 8
Created 1 atoms
  using lattice units in orthogonal box = (0 0 0) to (50.396842 50.396842 50.396842)
  create_atoms CPU = 0.001 seconds
    variable x0 equal ${x}
    variable x0 equal 7.4
    variable step equal ${step} + 1
    variable step equal 8 + 1
jump SELF loop_bead
if "${step} > ${N}" then "jump SELF end_inner"
    variable x equal ${x0} + ${dbead}
    variable x equal 7.4 + ${dbead}
    variable x equal 7.4 + 0.3
    variable y equal ${y0} + 1.5*${Ny}
    variable y equal 5 + 1.5*${Ny}
    variable y equal 5 + 1.5*4
    variable z equal ${z0} + 1.5*${Nz}
    variable z equal 6.5 + 1.5*${Nz}
    variable z equal 6.5 + 1.5*1
    create_atoms 2 single ${x} ${y} ${z}
    create_atoms 2 single 7.7 ${y} ${z}
    create_atoms 2 single 7.7 11 ${z}
    create_atoms 2 single 7.7 11 8
Created 1 atoms
  using lattice units in orthogonal box = (0 0 0) to (50.396842 50.396842 50.396842)
  create_atoms CPU = 0.000 seconds
    variable x0 equal ${x}
    variable x0 equal 7.7
    variable step equal ${step} + 1
    variable step equal 9 + 1
jump SELF loop_bead
if "${step} > ${N}" then "jump SELF end_inner"
    variable x equal ${x0} + ${dbead}
    variable x equal 7.7 + ${dbead}
    variable x equal 7.7 + 0.3
    variable y equal ${y0} + 1.5*${Ny}
    variable y equal 5 + 1.5*${Ny}
    variable y equal 5 + 1.5*4
    variable z equal ${z0} + 1.5*${Nz}
    variable z equal 6.5 + 1.5*${Nz}
    variable z equal 6.5 + 1.5*1
    create_atoms 2 single ${x} ${y} ${z}
    create_atoms 2 single 8 ${y} ${z}
    create_atoms 2 single 8 11 ${z}
    create_atoms 2 single 8 11 8
Created 1 atoms
  using lattice units in orthogonal box = (0 0 0) to (50.396842 50.396842 50.396842)
  create_atoms CPU = 0.000 seconds
    variable x0 equal ${x}
    variable x0 equal 8
    variable step equal ${step} + 1
    variable step equal 10 + 1
jump SELF loop_bead
if "${step} > ${N}" then "jump SELF end_inner"
    variable x equal ${x0} + ${dbead}
    variable x equal 8 + ${dbead}
    variable x equal 8 + 0.3
    variable y equal ${y0} + 1.5*${Ny}
    variable y equal 5 + 1.5*${Ny}
    variable y equal 5 + 1.5*4
    variable z equal ${z0} + 1.5*${Nz}
    variable z equal 6.5 + 1.5*${Nz}
    variable z equal 6.5 + 1.5*1
    create_atoms 2 single ${x} ${y} ${z}
    create_atoms 2 single 8.3 ${y} ${z}
    create_atoms 2 single 8.3 11 ${z}
    create_atoms 2 single 8.3 11 8
Created 1 atoms
  using lattice units in orthogonal box = (0 0 0) to (50.396842 50.396842 50.396842)
  create_atoms CPU = 0.001 seconds
    variable x0 equal ${x}
    variable x0 equal 8.3
    variable step equal ${step} + 1
    variable step equal 11 + 1
jump SELF loop_bead
if "${step} > ${N}" then "jump SELF end_inner"
    variable x equal ${x0} + ${dbead}
    variable x equal 8.3 + ${dbead}
    variable x equal 8.3 + 0.3
    variable y equal ${y0} + 1.5*${Ny}
    variable y equal 5 + 1.5*${Ny}
    variable y equal 5 + 1.5*4
    variable z equal ${z0} + 1.5*${Nz}
    variable z equal 6.5 + 1.5*${Nz}
    variable z equal 6.5 + 1.5*1
    create_atoms 2 single ${x} ${y} ${z}
    create_atoms 2 single 8.6 ${y} ${z}
    create_atoms 2 single 8.6 11 ${z}
    create_atoms 2 single 8.6 11 8
Created 1 atoms
  using lattice units in orthogonal box = (0 0 0) to (50.396842 50.396842 50.396842)
  create_atoms CPU = 0.001 seconds
    variable x0 equal ${x}
    variable x0 equal 8.6
    variable step equal ${step} + 1
    variable step equal 12 + 1
jump SELF loop_bead
if "${step} > ${N}" then "jump SELF end_inner"
    variable x equal ${x0} + ${dbead}
    variable x equal 8.6 + ${dbead}
    variable x equal 8.6 + 0.3
    variable y equal ${y0} + 1.5*${Ny}
    variable y equal 5 + 1.5*${Ny}
    variable y equal 5 + 1.5*4
    variable z equal ${z0} + 1.5*${Nz}
    variable z equal 6.5 + 1.5*${Nz}
    variable z equal 6.5 + 1.5*1
    create_atoms 2 single ${x} ${y} ${z}
    create_atoms 2 single 8.9 ${y} ${z}
    create_atoms 2 single 8.9 11 ${z}
    create_atoms 2 single 8.9 11 8
Created 1 atoms
  using lattice units in orthogonal box = (0 0 0) to (50.396842 50.396842 50.396842)
  create_atoms CPU = 0.001 seconds
    variable x0 equal ${x}
    variable x0 equal 8.9
    variable step equal ${step} + 1
    variable step equal 13 + 1
jump SELF loop_bead
if "${step} > ${N}" then "jump SELF end_inner"
    variable x equal ${x0} + ${dbead}
    variable x equal 8.9 + ${dbead}
    variable x equal 8.9 + 0.3
    variable y equal ${y0} + 1.5*${Ny}
    variable y equal 5 + 1.5*${Ny}
    variable y equal 5 + 1.5*4
    variable z equal ${z0} + 1.5*${Nz}
    variable z equal 6.5 + 1.5*${Nz}
    variable z equal 6.5 + 1.5*1
    create_atoms 2 single ${x} ${y} ${z}
    create_atoms 2 single 9.2 ${y} ${z}
    create_atoms 2 single 9.2 11 ${z}
    create_atoms 2 single 9.2 11 8
Created 1 atoms
  using lattice units in orthogonal box = (0 0 0) to (50.396842 50.396842 50.396842)
  create_atoms CPU = 0.000 seconds
    variable x0 equal ${x}
    variable x0 equal 9.2
    variable step equal ${step} + 1
    variable step equal 14 + 1
jump SELF loop_bead
if "${step} > ${N}" then "jump SELF end_inner"
    variable x equal ${x0} + ${dbead}
    variable x equal 9.2 + ${dbead}
    variable x equal 9.2 + 0.3
    variable y equal ${y0} + 1.5*${Ny}
    variable y equal 5 + 1.5*${Ny}
    variable y equal 5 + 1.5*4
    variable z equal ${z0} + 1.5*${Nz}
    variable z equal 6.5 + 1.5*${Nz}
    variable z equal 6.5 + 1.5*1
    create_atoms 2 single ${x} ${y} ${z}
    create_atoms 2 single 9.5 ${y} ${z}
    create_atoms 2 single 9.5 11 ${z}
    create_atoms 2 single 9.5 11 8
Created 1 atoms
  using lattice units in orthogonal box = (0 0 0) to (50.396842 50.396842 50.396842)
  create_atoms CPU = 0.001 seconds
    variable x0 equal ${x}
    variable x0 equal 9.5
    variable step equal ${step} + 1
    variable step equal 15 + 1
jump SELF loop_bead
if "${step} > ${N}" then "jump SELF end_inner"
    variable x equal ${x0} + ${dbead}
    variable x equal 9.5 + ${dbead}
    variable x equal 9.5 + 0.3
    variable y equal ${y0} + 1.5*${Ny}
    variable y equal 5 + 1.5*${Ny}
    variable y equal 5 + 1.5*4
    variable z equal ${z0} + 1.5*${Nz}
    variable z equal 6.5 + 1.5*${Nz}
    variable z equal 6.5 + 1.5*1
    create_atoms 2 single ${x} ${y} ${z}
    create_atoms 2 single 9.8 ${y} ${z}
    create_atoms 2 single 9.8 11 ${z}
    create_atoms 2 single 9.8 11 8
Created 1 atoms
  using lattice units in orthogonal box = (0 0 0) to (50.396842 50.396842 50.396842)
  create_atoms CPU = 0.000 seconds
    variable x0 equal ${x}
    variable x0 equal 9.8
    variable step equal ${step} + 1
    variable step equal 16 + 1
jump SELF loop_bead
if "${step} > ${N}" then "jump SELF end_inner"
    variable x equal ${x0} + ${dbead}
    variable x equal 9.8 + ${dbead}
    variable x equal 9.8 + 0.3
    variable y equal ${y0} + 1.5*${Ny}
    variable y equal 5 + 1.5*${Ny}
    variable y equal 5 + 1.5*4
    variable z equal ${z0} + 1.5*${Nz}
    variable z equal 6.5 + 1.5*${Nz}
    variable z equal 6.5 + 1.5*1
    create_atoms 2 single ${x} ${y} ${z}
    create_atoms 2 single 10.1 ${y} ${z}
    create_atoms 2 single 10.1 11 ${z}
    create_atoms 2 single 10.1 11 8
Created 1 atoms
  using lattice units in orthogonal box = (0 0 0) to (50.396842 50.396842 50.396842)
  create_atoms CPU = 0.001 seconds
    variable x0 equal ${x}
    variable x0 equal 10.1
    variable step equal ${step} + 1
    variable step equal 17 + 1
jump SELF loop_bead
if "${step} > ${N}" then "jump SELF end_inner"
    variable x equal ${x0} + ${dbead}
    variable x equal 10.1 + ${dbead}
    variable x equal 10.1 + 0.3
    variable y equal ${y0} + 1.5*${Ny}
    variable y equal 5 + 1.5*${Ny}
    variable y equal 5 + 1.5*4
    variable z equal ${z0} + 1.5*${Nz}
    variable z equal 6.5 + 1.5*${Nz}
    variable z equal 6.5 + 1.5*1
    create_atoms 2 single ${x} ${y} ${z}
    create_atoms 2 single 10.4 ${y} ${z}
    create_atoms 2 single 10.4 11 ${z}
    create_atoms 2 single 10.4 11 8
Created 1 atoms
  using lattice units in orthogonal box = (0 0 0) to (50.396842 50.396842 50.396842)
  create_atoms CPU = 0.000 seconds
    variable x0 equal ${x}
    variable x0 equal 10.4
    variable step equal ${step} + 1
    variable step equal 18 + 1
jump SELF loop_bead
if "${step} > ${N}" then "jump SELF end_inner"
    variable x equal ${x0} + ${dbead}
    variable x equal 10.4 + ${dbead}
    variable x equal 10.4 + 0.3
    variable y equal ${y0} + 1.5*${Ny}
    variable y equal 5 + 1.5*${Ny}
    variable y equal 5 + 1.5*4
    variable z equal ${z0} + 1.5*${Nz}
    variable z equal 6.5 + 1.5*${Nz}
    variable z equal 6.5 + 1.5*1
    create_atoms 2 single ${x} ${y} ${z}
    create_atoms 2 single 10.7 ${y} ${z}
    create_atoms 2 single 10.7 11 ${z}
    create_atoms 2 single 10.7 11 8
Created 1 atoms
  using lattice units in orthogonal box = (0 0 0) to (50.396842 50.396842 50.396842)
  create_atoms CPU = 0.000 seconds
    variable x0 equal ${x}
    variable x0 equal 10.7
    variable step equal ${step} + 1
    variable step equal 19 + 1
jump SELF loop_bead
if "${step} > ${N}" then "jump SELF end_inner"
jump SELF end_inner
variable x0 equal 5.0
variable y0 equal 5.0
variable step equal 1
next Ny
jump SELF loop_y
label loop_bead
if "${step} > ${N}" then "jump SELF end_inner"
    variable x equal ${x0} + ${dbead}
    variable x equal 5 + ${dbead}
    variable x equal 5 + 0.3
    variable y equal ${y0} + 1.5*${Ny}
    variable y equal 5 + 1.5*${Ny}
    variable y equal 5 + 1.5*5
    variable z equal ${z0} + 1.5*${Nz}
    variable z equal 6.5 + 1.5*${Nz}
    variable z equal 6.5 + 1.5*1
    create_atoms 2 single ${x} ${y} ${z}
    create_atoms 2 single 5.3 ${y} ${z}
    create_atoms 2 single 5.3 12.5 ${z}
    create_atoms 2 single 5.3 12.5 8
Created 1 atoms
  using lattice units in orthogonal box = (0 0 0) to (50.396842 50.396842 50.396842)
  create_atoms CPU = 0.001 seconds
    variable x0 equal ${x}
    variable x0 equal 5.3
    variable step equal ${step} + 1
    variable step equal 1 + 1
jump SELF loop_bead
if "${step} > ${N}" then "jump SELF end_inner"
    variable x equal ${x0} + ${dbead}
    variable x equal 5.3 + ${dbead}
    variable x equal 5.3 + 0.3
    variable y equal ${y0} + 1.5*${Ny}
    variable y equal 5 + 1.5*${Ny}
    variable y equal 5 + 1.5*5
    variable z equal ${z0} + 1.5*${Nz}
    variable z equal 6.5 + 1.5*${Nz}
    variable z equal 6.5 + 1.5*1
    create_atoms 2 single ${x} ${y} ${z}
    create_atoms 2 single 5.6 ${y} ${z}
    create_atoms 2 single 5.6 12.5 ${z}
    create_atoms 2 single 5.6 12.5 8
Created 1 atoms
  using lattice units in orthogonal box = (0 0 0) to (50.396842 50.396842 50.396842)
  create_atoms CPU = 0.000 seconds
    variable x0 equal ${x}
    variable x0 equal 5.6
    variable step equal ${step} + 1
    variable step equal 2 + 1
jump SELF loop_bead
if "${step} > ${N}" then "jump SELF end_inner"
    variable x equal ${x0} + ${dbead}
    variable x equal 5.6 + ${dbead}
    variable x equal 5.6 + 0.3
    variable y equal ${y0} + 1.5*${Ny}
    variable y equal 5 + 1.5*${Ny}
    variable y equal 5 + 1.5*5
    variable z equal ${z0} + 1.5*${Nz}
    variable z equal 6.5 + 1.5*${Nz}
    variable z equal 6.5 + 1.5*1
    create_atoms 2 single ${x} ${y} ${z}
    create_atoms 2 single 5.9 ${y} ${z}
    create_atoms 2 single 5.9 12.5 ${z}
    create_atoms 2 single 5.9 12.5 8
Created 1 atoms
  using lattice units in orthogonal box = (0 0 0) to (50.396842 50.396842 50.396842)
  create_atoms CPU = 0.000 seconds
    variable x0 equal ${x}
    variable x0 equal 5.9
    variable step equal ${step} + 1
    variable step equal 3 + 1
jump SELF loop_bead
if "${step} > ${N}" then "jump SELF end_inner"
    variable x equal ${x0} + ${dbead}
    variable x equal 5.9 + ${dbead}
    variable x equal 5.9 + 0.3
    variable y equal ${y0} + 1.5*${Ny}
    variable y equal 5 + 1.5*${Ny}
    variable y equal 5 + 1.5*5
    variable z equal ${z0} + 1.5*${Nz}
    variable z equal 6.5 + 1.5*${Nz}
    variable z equal 6.5 + 1.5*1
    create_atoms 2 single ${x} ${y} ${z}
    create_atoms 2 single 6.2 ${y} ${z}
    create_atoms 2 single 6.2 12.5 ${z}
    create_atoms 2 single 6.2 12.5 8
Created 1 atoms
  using lattice units in orthogonal box = (0 0 0) to (50.396842 50.396842 50.396842)
  create_atoms CPU = 0.001 seconds
    variable x0 equal ${x}
    variable x0 equal 6.2
    variable step equal ${step} + 1
    variable step equal 4 + 1
jump SELF loop_bead
if "${step} > ${N}" then "jump SELF end_inner"
    variable x equal ${x0} + ${dbead}
    variable x equal 6.2 + ${dbead}
    variable x equal 6.2 + 0.3
    variable y equal ${y0} + 1.5*${Ny}
    variable y equal 5 + 1.5*${Ny}
    variable y equal 5 + 1.5*5
    variable z equal ${z0} + 1.5*${Nz}
    variable z equal 6.5 + 1.5*${Nz}
    variable z equal 6.5 + 1.5*1
    create_atoms 2 single ${x} ${y} ${z}
    create_atoms 2 single 6.5 ${y} ${z}
    create_atoms 2 single 6.5 12.5 ${z}
    create_atoms 2 single 6.5 12.5 8
Created 1 atoms
  using lattice units in orthogonal box = (0 0 0) to (50.396842 50.396842 50.396842)
  create_atoms CPU = 0.000 seconds
    variable x0 equal ${x}
    variable x0 equal 6.5
    variable step equal ${step} + 1
    variable step equal 5 + 1
jump SELF loop_bead
if "${step} > ${N}" then "jump SELF end_inner"
    variable x equal ${x0} + ${dbead}
    variable x equal 6.5 + ${dbead}
    variable x equal 6.5 + 0.3
    variable y equal ${y0} + 1.5*${Ny}
    variable y equal 5 + 1.5*${Ny}
    variable y equal 5 + 1.5*5
    variable z equal ${z0} + 1.5*${Nz}
    variable z equal 6.5 + 1.5*${Nz}
    variable z equal 6.5 + 1.5*1
    create_atoms 2 single ${x} ${y} ${z}
    create_atoms 2 single 6.8 ${y} ${z}
    create_atoms 2 single 6.8 12.5 ${z}
    create_atoms 2 single 6.8 12.5 8
Created 1 atoms
  using lattice units in orthogonal box = (0 0 0) to (50.396842 50.396842 50.396842)
  create_atoms CPU = 0.001 seconds
    variable x0 equal ${x}
    variable x0 equal 6.8
    variable step equal ${step} + 1
    variable step equal 6 + 1
jump SELF loop_bead
if "${step} > ${N}" then "jump SELF end_inner"
    variable x equal ${x0} + ${dbead}
    variable x equal 6.8 + ${dbead}
    variable x equal 6.8 + 0.3
    variable y equal ${y0} + 1.5*${Ny}
    variable y equal 5 + 1.5*${Ny}
    variable y equal 5 + 1.5*5
    variable z equal ${z0} + 1.5*${Nz}
    variable z equal 6.5 + 1.5*${Nz}
    variable z equal 6.5 + 1.5*1
    create_atoms 2 single ${x} ${y} ${z}
    create_atoms 2 single 7.1 ${y} ${z}
    create_atoms 2 single 7.1 12.5 ${z}
    create_atoms 2 single 7.1 12.5 8
Created 1 atoms
  using lattice units in orthogonal box = (0 0 0) to (50.396842 50.396842 50.396842)
  create_atoms CPU = 0.000 seconds
    variable x0 equal ${x}
    variable x0 equal 7.1
    variable step equal ${step} + 1
    variable step equal 7 + 1
jump SELF loop_bead
if "${step} > ${N}" then "jump SELF end_inner"
    variable x equal ${x0} + ${dbead}
    variable x equal 7.1 + ${dbead}
    variable x equal 7.1 + 0.3
    variable y equal ${y0} + 1.5*${Ny}
    variable y equal 5 + 1.5*${Ny}
    variable y equal 5 + 1.5*5
    variable z equal ${z0} + 1.5*${Nz}
    variable z equal 6.5 + 1.5*${Nz}
    variable z equal 6.5 + 1.5*1
    create_atoms 2 single ${x} ${y} ${z}
    create_atoms 2 single 7.4 ${y} ${z}
    create_atoms 2 single 7.4 12.5 ${z}
    create_atoms 2 single 7.4 12.5 8
Created 1 atoms
  using lattice units in orthogonal box = (0 0 0) to (50.396842 50.396842 50.396842)
  create_atoms CPU = 0.000 seconds
    variable x0 equal ${x}
    variable x0 equal 7.4
    variable step equal ${step} + 1
    variable step equal 8 + 1
jump SELF loop_bead
if "${step} > ${N}" then "jump SELF end_inner"
    variable x equal ${x0} + ${dbead}
    variable x equal 7.4 + ${dbead}
    variable x equal 7.4 + 0.3
    variable y equal ${y0} + 1.5*${Ny}
    variable y equal 5 + 1.5*${Ny}
    variable y equal 5 + 1.5*5
    variable z equal ${z0} + 1.5*${Nz}
    variable z equal 6.5 + 1.5*${Nz}
    variable z equal 6.5 + 1.5*1
    create_atoms 2 single ${x} ${y} ${z}
    create_atoms 2 single 7.7 ${y} ${z}
    create_atoms 2 single 7.7 12.5 ${z}
    create_atoms 2 single 7.7 12.5 8
Created 1 atoms
  using lattice units in orthogonal box = (0 0 0) to (50.396842 50.396842 50.396842)
  create_atoms CPU = 0.001 seconds
    variable x0 equal ${x}
    variable x0 equal 7.7
    variable step equal ${step} + 1
    variable step equal 9 + 1
jump SELF loop_bead
if "${step} > ${N}" then "jump SELF end_inner"
    variable x equal ${x0} + ${dbead}
    variable x equal 7.7 + ${dbead}
    variable x equal 7.7 + 0.3
    variable y equal ${y0} + 1.5*${Ny}
    variable y equal 5 + 1.5*${Ny}
    variable y equal 5 + 1.5*5
    variable z equal ${z0} + 1.5*${Nz}
    variable z equal 6.5 + 1.5*${Nz}
    variable z equal 6.5 + 1.5*1
    create_atoms 2 single ${x} ${y} ${z}
    create_atoms 2 single 8 ${y} ${z}
    create_atoms 2 single 8 12.5 ${z}
    create_atoms 2 single 8 12.5 8
Created 1 atoms
  using lattice units in orthogonal box = (0 0 0) to (50.396842 50.396842 50.396842)
  create_atoms CPU = 0.000 seconds
    variable x0 equal ${x}
    variable x0 equal 8
    variable step equal ${step} + 1
    variable step equal 10 + 1
jump SELF loop_bead
if "${step} > ${N}" then "jump SELF end_inner"
    variable x equal ${x0} + ${dbead}
    variable x equal 8 + ${dbead}
    variable x equal 8 + 0.3
    variable y equal ${y0} + 1.5*${Ny}
    variable y equal 5 + 1.5*${Ny}
    variable y equal 5 + 1.5*5
    variable z equal ${z0} + 1.5*${Nz}
    variable z equal 6.5 + 1.5*${Nz}
    variable z equal 6.5 + 1.5*1
    create_atoms 2 single ${x} ${y} ${z}
    create_atoms 2 single 8.3 ${y} ${z}
    create_atoms 2 single 8.3 12.5 ${z}
    create_atoms 2 single 8.3 12.5 8
Created 1 atoms
  using lattice units in orthogonal box = (0 0 0) to (50.396842 50.396842 50.396842)
  create_atoms CPU = 0.000 seconds
    variable x0 equal ${x}
    variable x0 equal 8.3
    variable step equal ${step} + 1
    variable step equal 11 + 1
jump SELF loop_bead
if "${step} > ${N}" then "jump SELF end_inner"
    variable x equal ${x0} + ${dbead}
    variable x equal 8.3 + ${dbead}
    variable x equal 8.3 + 0.3
    variable y equal ${y0} + 1.5*${Ny}
    variable y equal 5 + 1.5*${Ny}
    variable y equal 5 + 1.5*5
    variable z equal ${z0} + 1.5*${Nz}
    variable z equal 6.5 + 1.5*${Nz}
    variable z equal 6.5 + 1.5*1
    create_atoms 2 single ${x} ${y} ${z}
    create_atoms 2 single 8.6 ${y} ${z}
    create_atoms 2 single 8.6 12.5 ${z}
    create_atoms 2 single 8.6 12.5 8
Created 1 atoms
  using lattice units in orthogonal box = (0 0 0) to (50.396842 50.396842 50.396842)
  create_atoms CPU = 0.001 seconds
    variable x0 equal ${x}
    variable x0 equal 8.6
    variable step equal ${step} + 1
    variable step equal 12 + 1
jump SELF loop_bead
if "${step} > ${N}" then "jump SELF end_inner"
    variable x equal ${x0} + ${dbead}
    variable x equal 8.6 + ${dbead}
    variable x equal 8.6 + 0.3
    variable y equal ${y0} + 1.5*${Ny}
    variable y equal 5 + 1.5*${Ny}
    variable y equal 5 + 1.5*5
    variable z equal ${z0} + 1.5*${Nz}
    variable z equal 6.5 + 1.5*${Nz}
    variable z equal 6.5 + 1.5*1
    create_atoms 2 single ${x} ${y} ${z}
    create_atoms 2 single 8.9 ${y} ${z}
    create_atoms 2 single 8.9 12.5 ${z}
    create_atoms 2 single 8.9 12.5 8
Created 1 atoms
  using lattice units in orthogonal box = (0 0 0) to (50.396842 50.396842 50.396842)
  create_atoms CPU = 0.000 seconds
    variable x0 equal ${x}
    variable x0 equal 8.9
    variable step equal ${step} + 1
    variable step equal 13 + 1
jump SELF loop_bead
if "${step} > ${N}" then "jump SELF end_inner"
    variable x equal ${x0} + ${dbead}
    variable x equal 8.9 + ${dbead}
    variable x equal 8.9 + 0.3
    variable y equal ${y0} + 1.5*${Ny}
    variable y equal 5 + 1.5*${Ny}
    variable y equal 5 + 1.5*5
    variable z equal ${z0} + 1.5*${Nz}
    variable z equal 6.5 + 1.5*${Nz}
    variable z equal 6.5 + 1.5*1
    create_atoms 2 single ${x} ${y} ${z}
    create_atoms 2 single 9.2 ${y} ${z}
    create_atoms 2 single 9.2 12.5 ${z}
    create_atoms 2 single 9.2 12.5 8
Created 1 atoms
  using lattice units in orthogonal box = (0 0 0) to (50.396842 50.396842 50.396842)
  create_atoms CPU = 0.001 seconds
    variable x0 equal ${x}
    variable x0 equal 9.2
    variable step equal ${step} + 1
    variable step equal 14 + 1
jump SELF loop_bead
if "${step} > ${N}" then "jump SELF end_inner"
    variable x equal ${x0} + ${dbead}
    variable x equal 9.2 + ${dbead}
    variable x equal 9.2 + 0.3
    variable y equal ${y0} + 1.5*${Ny}
    variable y equal 5 + 1.5*${Ny}
    variable y equal 5 + 1.5*5
    variable z equal ${z0} + 1.5*${Nz}
    variable z equal 6.5 + 1.5*${Nz}
    variable z equal 6.5 + 1.5*1
    create_atoms 2 single ${x} ${y} ${z}
    create_atoms 2 single 9.5 ${y} ${z}
    create_atoms 2 single 9.5 12.5 ${z}
    create_atoms 2 single 9.5 12.5 8
Created 1 atoms
  using lattice units in orthogonal box = (0 0 0) to (50.396842 50.396842 50.396842)
  create_atoms CPU = 0.000 seconds
    variable x0 equal ${x}
    variable x0 equal 9.5
    variable step equal ${step} + 1
    variable step equal 15 + 1
jump SELF loop_bead
if "${step} > ${N}" then "jump SELF end_inner"
    variable x equal ${x0} + ${dbead}
    variable x equal 9.5 + ${dbead}
    variable x equal 9.5 + 0.3
    variable y equal ${y0} + 1.5*${Ny}
    variable y equal 5 + 1.5*${Ny}
    variable y equal 5 + 1.5*5
    variable z equal ${z0} + 1.5*${Nz}
    variable z equal 6.5 + 1.5*${Nz}
    variable z equal 6.5 + 1.5*1
    create_atoms 2 single ${x} ${y} ${z}
    create_atoms 2 single 9.8 ${y} ${z}
    create_atoms 2 single 9.8 12.5 ${z}
    create_atoms 2 single 9.8 12.5 8
Created 1 atoms
  using lattice units in orthogonal box = (0 0 0) to (50.396842 50.396842 50.396842)
  create_atoms CPU = 0.000 seconds
    variable x0 equal ${x}
    variable x0 equal 9.8
    variable step equal ${step} + 1
    variable step equal 16 + 1
jump SELF loop_bead
if "${step} > ${N}" then "jump SELF end_inner"
    variable x equal ${x0} + ${dbead}
    variable x equal 9.8 + ${dbead}
    variable x equal 9.8 + 0.3
    variable y equal ${y0} + 1.5*${Ny}
    variable y equal 5 + 1.5*${Ny}
    variable y equal 5 + 1.5*5
    variable z equal ${z0} + 1.5*${Nz}
    variable z equal 6.5 + 1.5*${Nz}
    variable z equal 6.5 + 1.5*1
    create_atoms 2 single ${x} ${y} ${z}
    create_atoms 2 single 10.1 ${y} ${z}
    create_atoms 2 single 10.1 12.5 ${z}
    create_atoms 2 single 10.1 12.5 8
Created 1 atoms
  using lattice units in orthogonal box = (0 0 0) to (50.396842 50.396842 50.396842)
  create_atoms CPU = 0.001 seconds
    variable x0 equal ${x}
    variable x0 equal 10.1
    variable step equal ${step} + 1
    variable step equal 17 + 1
jump SELF loop_bead
if "${step} > ${N}" then "jump SELF end_inner"
    variable x equal ${x0} + ${dbead}
    variable x equal 10.1 + ${dbead}
    variable x equal 10.1 + 0.3
    variable y equal ${y0} + 1.5*${Ny}
    variable y equal 5 + 1.5*${Ny}
    variable y equal 5 + 1.5*5
    variable z equal ${z0} + 1.5*${Nz}
    variable z equal 6.5 + 1.5*${Nz}
    variable z equal 6.5 + 1.5*1
    create_atoms 2 single ${x} ${y} ${z}
    create_atoms 2 single 10.4 ${y} ${z}
    create_atoms 2 single 10.4 12.5 ${z}
    create_atoms 2 single 10.4 12.5 8
Created 1 atoms
  using lattice units in orthogonal box = (0 0 0) to (50.396842 50.396842 50.396842)
  create_atoms CPU = 0.000 seconds
    variable x0 equal ${x}
    variable x0 equal 10.4
    variable step equal ${step} + 1
    variable step equal 18 + 1
jump SELF loop_bead
if "${step} > ${N}" then "jump SELF end_inner"
    variable x equal ${x0} + ${dbead}
    variable x equal 10.4 + ${dbead}
    variable x equal 10.4 + 0.3
    variable y equal ${y0} + 1.5*${Ny}
    variable y equal 5 + 1.5*${Ny}
    variable y equal 5 + 1.5*5
    variable z equal ${z0} + 1.5*${Nz}
    variable z equal 6.5 + 1.5*${Nz}
    variable z equal 6.5 + 1.5*1
    create_atoms 2 single ${x} ${y} ${z}
    create_atoms 2 single 10.7 ${y} ${z}
    create_atoms 2 single 10.7 12.5 ${z}
    create_atoms 2 single 10.7 12.5 8
Created 1 atoms
  using lattice units in orthogonal box = (0 0 0) to (50.396842 50.396842 50.396842)
  create_atoms CPU = 0.000 seconds
    variable x0 equal ${x}
    variable x0 equal 10.7
    variable step equal ${step} + 1
    variable step equal 19 + 1
jump SELF loop_bead
if "${step} > ${N}" then "jump SELF end_inner"
jump SELF end_inner
variable x0 equal 5.0
variable y0 equal 5.0
variable step equal 1
next Ny
jump SELF loop_y
label loop_bead
if "${step} > ${N}" then "jump SELF end_inner"
    variable x equal ${x0} + ${dbead}
    variable x equal 5 + ${dbead}
    variable x equal 5 + 0.3
    variable y equal ${y0} + 1.5*${Ny}
    variable y equal 5 + 1.5*${Ny}
    variable y equal 5 + 1.5*6
    variable z equal ${z0} + 1.5*${Nz}
    variable z equal 6.5 + 1.5*${Nz}
    variable z equal 6.5 + 1.5*1
    create_atoms 2 single ${x} ${y} ${z}
    create_atoms 2 single 5.3 ${y} ${z}
    create_atoms 2 single 5.3 14 ${z}
    create_atoms 2 single 5.3 14 8
Created 1 atoms
  using lattice units in orthogonal box = (0 0 0) to (50.396842 50.396842 50.396842)
  create_atoms CPU = 0.001 seconds
    variable x0 equal ${x}
    variable x0 equal 5.3
    variable step equal ${step} + 1
    variable step equal 1 + 1
jump SELF loop_bead
if "${step} > ${N}" then "jump SELF end_inner"
    variable x equal ${x0} + ${dbead}
    variable x equal 5.3 + ${dbead}
    variable x equal 5.3 + 0.3
    variable y equal ${y0} + 1.5*${Ny}
    variable y equal 5 + 1.5*${Ny}
    variable y equal 5 + 1.5*6
    variable z equal ${z0} + 1.5*${Nz}
    variable z equal 6.5 + 1.5*${Nz}
    variable z equal 6.5 + 1.5*1
    create_atoms 2 single ${x} ${y} ${z}
    create_atoms 2 single 5.6 ${y} ${z}
    create_atoms 2 single 5.6 14 ${z}
    create_atoms 2 single 5.6 14 8
Created 1 atoms
  using lattice units in orthogonal box = (0 0 0) to (50.396842 50.396842 50.396842)
  create_atoms CPU = 0.000 seconds
    variable x0 equal ${x}
    variable x0 equal 5.6
[...]
    create_atoms 2 single 10.1 ${y} ${z}
    create_atoms 2 single 10.1 33.5 ${z}
    create_atoms 2 single 10.1 33.5 11
Created 0 atoms
  using lattice units in orthogonal box = (0 0 0) to (50.396842 50.396842 50.396842)
  create_atoms CPU = 0.000 seconds
    variable x0 equal ${x}
    variable x0 equal 10.1
    variable step equal ${step} + 1
    variable step equal 17 + 1
jump SELF loop_bead
if "${step} > ${N}" then "jump SELF end_inner"
    variable x equal ${x0} + ${dbead}
    variable x equal 10.1 + ${dbead}
    variable x equal 10.1 + 0.3
    variable y equal ${y0} + 1.5*${Ny}
    variable y equal 5 + 1.5*${Ny}
    variable y equal 5 + 1.5*19
    variable z equal ${z0} + 1.5*${Nz}
    variable z equal 6.5 + 1.5*${Nz}
    variable z equal 6.5 + 1.5*3
    create_atoms 2 single ${x} ${y} ${z}
    create_atoms 2 single 10.4 ${y} ${z}
    create_atoms 2 single 10.4 33.5 ${z}
    create_atoms 2 single 10.4 33.5 11
Created 0 atoms
  using lattice units in orthogonal box = (0 0 0) to (50.396842 50.396842 50.396842)
  create_atoms CPU = 0.000 seconds
    variable x0 equal ${x}
    variable x0 equal 10.4
    variable step equal ${step} + 1
    variable step equal 18 + 1
jump SELF loop_bead
if "${step} > ${N}" then "jump SELF end_inner"
    variable x equal ${x0} + ${dbead}
    variable x equal 10.4 + ${dbead}
    variable x equal 10.4 + 0.3
    variable y equal ${y0} + 1.5*${Ny}
    variable y equal 5 + 1.5*${Ny}
    variable y equal 5 + 1.5*19
    variable z equal ${z0} + 1.5*${Nz}
    variable z equal 6.5 + 1.5*${Nz}
    variable z equal 6.5 + 1.5*3
    create_atoms 2 single ${x} ${y} ${z}
    create_atoms 2 single 10.7 ${y} ${z}
    create_atoms 2 single 10.7 33.5 ${z}
    create_atoms 2 single 10.7 33.5 11
Created 0 atoms
  using lattice units in orthogonal box = (0 0 0) to (50.396842 50.396842 50.396842)
  create_atoms CPU = 0.000 seconds
    variable x0 equal ${x}
    variable x0 equal 10.7
    variable step equal ${step} + 1
    variable step equal 19 + 1
jump SELF loop_bead
if "${step} > ${N}" then "jump SELF end_inner"
jump SELF end_inner
variable x0 equal 5.0
variable y0 equal 5.0
variable step equal 1
next Ny
jump SELF loop_y
label loop_bead
if "${step} > ${N}" then "jump SELF end_inner"
    variable x equal ${x0} + ${dbead}
    variable x equal 5 + ${dbead}
    variable x equal 5 + 0.3
    variable y equal ${y0} + 1.5*${Ny}
    variable y equal 5 + 1.5*${Ny}
    variable y equal 5 + 1.5*20
    variable z equal ${z0} + 1.5*${Nz}
    variable z equal 6.5 + 1.5*${Nz}
    variable z equal 6.5 + 1.5*3
    create_atoms 2 single ${x} ${y} ${z}
    create_atoms 2 single 5.3 ${y} ${z}
    create_atoms 2 single 5.3 35 ${z}
    create_atoms 2 single 5.3 35 11
Created 0 atoms
  using lattice units in orthogonal box = (0 0 0) to (50.396842 50.396842 50.396842)
  create_atoms CPU = 0.000 seconds
    variable x0 equal ${x}
    variable x0 equal 5.3
    variable step equal ${step} + 1
    variable step equal 1 + 1
jump SELF loop_bead
if "${step} > ${N}" then "jump SELF end_inner"
    variable x equal ${x0} + ${dbead}
    variable x equal 5.3 + ${dbead}
    variable x equal 5.3 + 0.3
    variable y equal ${y0} + 1.5*${Ny}
    variable y equal 5 + 1.5*${Ny}
    variable y equal 5 + 1.5*20
    variable z equal ${z0} + 1.5*${Nz}
    variable z equal 6.5 + 1.5*${Nz}
    variable z equal 6.5 + 1.5*3
    create_atoms 2 single ${x} ${y} ${z}
    create_atoms 2 single 5.6 ${y} ${z}
    create_atoms 2 single 5.6 35 ${z}
    create_atoms 2 single 5.6 35 11
Created 0 atoms
  using lattice units in orthogonal box = (0 0 0) to (50.396842 50.396842 50.396842)
  create_atoms CPU = 0.000 seconds
    variable x0 equal ${x}
    variable x0 equal 5.6
    variable step equal ${step} + 1
    variable step equal 2 + 1
jump SELF loop_bead
if "${step} > ${N}" then "jump SELF end_inner"
    variable x equal ${x0} + ${dbead}
    variable x equal 5.6 + ${dbead}
    variable x equal 5.6 + 0.3
    variable y equal ${y0} + 1.5*${Ny}
    variable y equal 5 + 1.5*${Ny}
    variable y equal 5 + 1.5*20
    variable z equal ${z0} + 1.5*${Nz}
    variable z equal 6.5 + 1.5*${Nz}
    variable z equal 6.5 + 1.5*3
    create_atoms 2 single ${x} ${y} ${z}
    create_atoms 2 single 5.9 ${y} ${z}
    create_atoms 2 single 5.9 35 ${z}
    create_atoms 2 single 5.9 35 11
Created 0 atoms
  using lattice units in orthogonal box = (0 0 0) to (50.396842 50.396842 50.396842)
  create_atoms CPU = 0.000 seconds
    variable x0 equal ${x}
    variable x0 equal 5.9
    variable step equal ${step} + 1
    variable step equal 3 + 1
jump SELF loop_bead
if "${step} > ${N}" then "jump SELF end_inner"
    variable x equal ${x0} + ${dbead}
    variable x equal 5.9 + ${dbead}
    variable x equal 5.9 + 0.3
    variable y equal ${y0} + 1.5*${Ny}
    variable y equal 5 + 1.5*${Ny}
    variable y equal 5 + 1.5*20
    variable z equal ${z0} + 1.5*${Nz}
    variable z equal 6.5 + 1.5*${Nz}
    variable z equal 6.5 + 1.5*3
    create_atoms 2 single ${x} ${y} ${z}
    create_atoms 2 single 6.2 ${y} ${z}
    create_atoms 2 single 6.2 35 ${z}
    create_atoms 2 single 6.2 35 11
Created 0 atoms
  using lattice units in orthogonal box = (0 0 0) to (50.396842 50.396842 50.396842)
  create_atoms CPU = 0.000 seconds
    variable x0 equal ${x}
    variable x0 equal 6.2
    variable step equal ${step} + 1
    variable step equal 4 + 1
jump SELF loop_bead
if "${step} > ${N}" then "jump SELF end_inner"
    variable x equal ${x0} + ${dbead}
    variable x equal 6.2 + ${dbead}
    variable x equal 6.2 + 0.3
    variable y equal ${y0} + 1.5*${Ny}
    variable y equal 5 + 1.5*${Ny}
    variable y equal 5 + 1.5*20
    variable z equal ${z0} + 1.5*${Nz}
    variable z equal 6.5 + 1.5*${Nz}
    variable z equal 6.5 + 1.5*3
    create_atoms 2 single ${x} ${y} ${z}
    create_atoms 2 single 6.5 ${y} ${z}
    create_atoms 2 single 6.5 35 ${z}
    create_atoms 2 single 6.5 35 11
Created 0 atoms
  using lattice units in orthogonal box = (0 0 0) to (50.396842 50.396842 50.396842)
  create_atoms CPU = 0.000 seconds
    variable x0 equal ${x}
    variable x0 equal 6.5
    variable step equal ${step} + 1
    variable step equal 5 + 1
jump SELF loop_bead
if "${step} > ${N}" then "jump SELF end_inner"
    variable x equal ${x0} + ${dbead}
    variable x equal 6.5 + ${dbead}
    variable x equal 6.5 + 0.3
    variable y equal ${y0} + 1.5*${Ny}
    variable y equal 5 + 1.5*${Ny}
    variable y equal 5 + 1.5*20
    variable z equal ${z0} + 1.5*${Nz}
    variable z equal 6.5 + 1.5*${Nz}
    variable z equal 6.5 + 1.5*3
    create_atoms 2 single ${x} ${y} ${z}
    create_atoms 2 single 6.8 ${y} ${z}
    create_atoms 2 single 6.8 35 ${z}
    create_atoms 2 single 6.8 35 11
Created 0 atoms
  using lattice units in orthogonal box = (0 0 0) to (50.396842 50.396842 50.396842)
  create_atoms CPU = 0.000 seconds
    variable x0 equal ${x}
    variable x0 equal 6.8
    variable step equal ${step} + 1
    variable step equal 6 + 1
jump SELF loop_bead
if "${step} > ${N}" then "jump SELF end_inner"
    variable x equal ${x0} + ${dbead}
    variable x equal 6.8 + ${dbead}
    variable x equal 6.8 + 0.3
    variable y equal ${y0} + 1.5*${Ny}
    variable y equal 5 + 1.5*${Ny}
    variable y equal 5 + 1.5*20
    variable z equal ${z0} + 1.5*${Nz}
    variable z equal 6.5 + 1.5*${Nz}
    variable z equal 6.5 + 1.5*3
    create_atoms 2 single ${x} ${y} ${z}
    create_atoms 2 single 7.1 ${y} ${z}
    create_atoms 2 single 7.1 35 ${z}
    create_atoms 2 single 7.1 35 11
Created 0 atoms
  using lattice units in orthogonal box = (0 0 0) to (50.396842 50.396842 50.396842)
  create_atoms CPU = 0.000 seconds
    variable x0 equal ${x}
    variable x0 equal 7.1
    variable step equal ${step} + 1
    variable step equal 7 + 1
jump SELF loop_bead
if "${step} > ${N}" then "jump SELF end_inner"
    variable x equal ${x0} + ${dbead}
    variable x equal 7.1 + ${dbead}
    variable x equal 7.1 + 0.3
    variable y equal ${y0} + 1.5*${Ny}
    variable y equal 5 + 1.5*${Ny}
    variable y equal 5 + 1.5*20
    variable z equal ${z0} + 1.5*${Nz}
    variable z equal 6.5 + 1.5*${Nz}
    variable z equal 6.5 + 1.5*3
    create_atoms 2 single ${x} ${y} ${z}
    create_atoms 2 single 7.4 ${y} ${z}
    create_atoms 2 single 7.4 35 ${z}
    create_atoms 2 single 7.4 35 11
Created 0 atoms
  using lattice units in orthogonal box = (0 0 0) to (50.396842 50.396842 50.396842)
  create_atoms CPU = 0.000 seconds
    variable x0 equal ${x}
    variable x0 equal 7.4
    variable step equal ${step} + 1
    variable step equal 8 + 1
jump SELF loop_bead
if "${step} > ${N}" then "jump SELF end_inner"
    variable x equal ${x0} + ${dbead}
    variable x equal 7.4 + ${dbead}
    variable x equal 7.4 + 0.3
    variable y equal ${y0} + 1.5*${Ny}
    variable y equal 5 + 1.5*${Ny}
    variable y equal 5 + 1.5*20
    variable z equal ${z0} + 1.5*${Nz}
    variable z equal 6.5 + 1.5*${Nz}
    variable z equal 6.5 + 1.5*3
    create_atoms 2 single ${x} ${y} ${z}
    create_atoms 2 single 7.7 ${y} ${z}
    create_atoms 2 single 7.7 35 ${z}
    create_atoms 2 single 7.7 35 11
Created 0 atoms
  using lattice units in orthogonal box = (0 0 0) to (50.396842 50.396842 50.396842)
  create_atoms CPU = 0.000 seconds
    variable x0 equal ${x}
    variable x0 equal 7.7
    variable step equal ${step} + 1
    variable step equal 9 + 1
jump SELF loop_bead
if "${step} > ${N}" then "jump SELF end_inner"
    variable x equal ${x0} + ${dbead}
    variable x equal 7.7 + ${dbead}
    variable x equal 7.7 + 0.3
    variable y equal ${y0} + 1.5*${Ny}
    variable y equal 5 + 1.5*${Ny}
    variable y equal 5 + 1.5*20
    variable z equal ${z0} + 1.5*${Nz}
    variable z equal 6.5 + 1.5*${Nz}
    variable z equal 6.5 + 1.5*3
    create_atoms 2 single ${x} ${y} ${z}
    create_atoms 2 single 8 ${y} ${z}
    create_atoms 2 single 8 35 ${z}
    create_atoms 2 single 8 35 11
Created 0 atoms
  using lattice units in orthogonal box = (0 0 0) to (50.396842 50.396842 50.396842)
  create_atoms CPU = 0.000 seconds
    variable x0 equal ${x}
    variable x0 equal 8
    variable step equal ${step} + 1
    variable step equal 10 + 1
jump SELF loop_bead
if "${step} > ${N}" then "jump SELF end_inner"
    variable x equal ${x0} + ${dbead}
    variable x equal 8 + ${dbead}
    variable x equal 8 + 0.3
    variable y equal ${y0} + 1.5*${Ny}
    variable y equal 5 + 1.5*${Ny}
    variable y equal 5 + 1.5*20
    variable z equal ${z0} + 1.5*${Nz}
    variable z equal 6.5 + 1.5*${Nz}
    variable z equal 6.5 + 1.5*3
    create_atoms 2 single ${x} ${y} ${z}
    create_atoms 2 single 8.3 ${y} ${z}
    create_atoms 2 single 8.3 35 ${z}
    create_atoms 2 single 8.3 35 11
Created 0 atoms
  using lattice units in orthogonal box = (0 0 0) to (50.396842 50.396842 50.396842)
  create_atoms CPU = 0.000 seconds
    variable x0 equal ${x}
    variable x0 equal 8.3
    variable step equal ${step} + 1
    variable step equal 11 + 1
jump SELF loop_bead
if "${step} > ${N}" then "jump SELF end_inner"
    variable x equal ${x0} + ${dbead}
    variable x equal 8.3 + ${dbead}
    variable x equal 8.3 + 0.3
    variable y equal ${y0} + 1.5*${Ny}
    variable y equal 5 + 1.5*${Ny}
    variable y equal 5 + 1.5*20
    variable z equal ${z0} + 1.5*${Nz}
    variable z equal 6.5 + 1.5*${Nz}
    variable z equal 6.5 + 1.5*3
    create_atoms 2 single ${x} ${y} ${z}
    create_atoms 2 single 8.6 ${y} ${z}
    create_atoms 2 single 8.6 35 ${z}
    create_atoms 2 single 8.6 35 11
Created 0 atoms
  using lattice units in orthogonal box = (0 0 0) to (50.396842 50.396842 50.396842)
  create_atoms CPU = 0.000 seconds
    variable x0 equal ${x}
    variable x0 equal 8.6
    variable step equal ${step} + 1
    variable step equal 12 + 1
jump SELF loop_bead
if "${step} > ${N}" then "jump SELF end_inner"
    variable x equal ${x0} + ${dbead}
    variable x equal 8.6 + ${dbead}
    variable x equal 8.6 + 0.3
    variable y equal ${y0} + 1.5*${Ny}
    variable y equal 5 + 1.5*${Ny}
    variable y equal 5 + 1.5*20
    variable z equal ${z0} + 1.5*${Nz}
    variable z equal 6.5 + 1.5*${Nz}
    variable z equal 6.5 + 1.5*3
    create_atoms 2 single ${x} ${y} ${z}
    create_atoms 2 single 8.9 ${y} ${z}
    create_atoms 2 single 8.9 35 ${z}
    create_atoms 2 single 8.9 35 11
Created 0 atoms
  using lattice units in orthogonal box = (0 0 0) to (50.396842 50.396842 50.396842)
  create_atoms CPU = 0.000 seconds
    variable x0 equal ${x}
    variable x0 equal 8.9
    variable step equal ${step} + 1
    variable step equal 13 + 1
jump SELF loop_bead
if "${step} > ${N}" then "jump SELF end_inner"
    variable x equal ${x0} + ${dbead}
    variable x equal 8.9 + ${dbead}
    variable x equal 8.9 + 0.3
    variable y equal ${y0} + 1.5*${Ny}
    variable y equal 5 + 1.5*${Ny}
    variable y equal 5 + 1.5*20
    variable z equal ${z0} + 1.5*${Nz}
    variable z equal 6.5 + 1.5*${Nz}
    variable z equal 6.5 + 1.5*3
    create_atoms 2 single ${x} ${y} ${z}
    create_atoms 2 single 9.2 ${y} ${z}
    create_atoms 2 single 9.2 35 ${z}
    create_atoms 2 single 9.2 35 11
Created 0 atoms
  using lattice units in orthogonal box = (0 0 0) to (50.396842 50.396842 50.396842)
  create_atoms CPU = 0.000 seconds
    variable x0 equal ${x}
    variable x0 equal 9.2
    variable step equal ${step} + 1
    variable step equal 14 + 1
jump SELF loop_bead
if "${step} > ${N}" then "jump SELF end_inner"
    variable x equal ${x0} + ${dbead}
    variable x equal 9.2 + ${dbead}
    variable x equal 9.2 + 0.3
    variable y equal ${y0} + 1.5*${Ny}
    variable y equal 5 + 1.5*${Ny}
    variable y equal 5 + 1.5*20
    variable z equal ${z0} + 1.5*${Nz}
    variable z equal 6.5 + 1.5*${Nz}
    variable z equal 6.5 + 1.5*3
    create_atoms 2 single ${x} ${y} ${z}
    create_atoms 2 single 9.5 ${y} ${z}
    create_atoms 2 single 9.5 35 ${z}
    create_atoms 2 single 9.5 35 11
Created 0 atoms
  using lattice units in orthogonal box = (0 0 0) to (50.396842 50.396842 50.396842)
  create_atoms CPU = 0.000 seconds
    variable x0 equal ${x}
    variable x0 equal 9.5
    variable step equal ${step} + 1
    variable step equal 15 + 1
jump SELF loop_bead
if "${step} > ${N}" then "jump SELF end_inner"
    variable x equal ${x0} + ${dbead}
    variable x equal 9.5 + ${dbead}
    variable x equal 9.5 + 0.3
    variable y equal ${y0} + 1.5*${Ny}
    variable y equal 5 + 1.5*${Ny}
    variable y equal 5 + 1.5*20
    variable z equal ${z0} + 1.5*${Nz}
    variable z equal 6.5 + 1.5*${Nz}
    variable z equal 6.5 + 1.5*3
    create_atoms 2 single ${x} ${y} ${z}
    create_atoms 2 single 9.8 ${y} ${z}
    create_atoms 2 single 9.8 35 ${z}
    create_atoms 2 single 9.8 35 11
Created 0 atoms
  using lattice units in orthogonal box = (0 0 0) to (50.396842 50.396842 50.396842)
  create_atoms CPU = 0.000 seconds
    variable x0 equal ${x}
    variable x0 equal 9.8
    variable step equal ${step} + 1
    variable step equal 16 + 1
jump SELF loop_bead
if "${step} > ${N}" then "jump SELF end_inner"
    variable x equal ${x0} + ${dbead}
    variable x equal 9.8 + ${dbead}
    variable x equal 9.8 + 0.3
    variable y equal ${y0} + 1.5*${Ny}
    variable y equal 5 + 1.5*${Ny}
    variable y equal 5 + 1.5*20
    variable z equal ${z0} + 1.5*${Nz}
    variable z equal 6.5 + 1.5*${Nz}
    variable z equal 6.5 + 1.5*3
    create_atoms 2 single ${x} ${y} ${z}
    create_atoms 2 single 10.1 ${y} ${z}
    create_atoms 2 single 10.1 35 ${z}
    create_atoms 2 single 10.1 35 11
Created 0 atoms
  using lattice units in orthogonal box = (0 0 0) to (50.396842 50.396842 50.396842)
  create_atoms CPU = 0.000 seconds
    variable x0 equal ${x}
    variable x0 equal 10.1
    variable step equal ${step} + 1
    variable step equal 17 + 1
jump SELF loop_bead
if "${step} > ${N}" then "jump SELF end_inner"
    variable x equal ${x0} + ${dbead}
    variable x equal 10.1 + ${dbead}
    variable x equal 10.1 + 0.3
    variable y equal ${y0} + 1.5*${Ny}
    variable y equal 5 + 1.5*${Ny}
    variable y equal 5 + 1.5*20
    variable z equal ${z0} + 1.5*${Nz}
    variable z equal 6.5 + 1.5*${Nz}
    variable z equal 6.5 + 1.5*3
    create_atoms 2 single ${x} ${y} ${z}
    create_atoms 2 single 10.4 ${y} ${z}
    create_atoms 2 single 10.4 35 ${z}
    create_atoms 2 single 10.4 35 11
Created 0 atoms
  using lattice units in orthogonal box = (0 0 0) to (50.396842 50.396842 50.396842)
  create_atoms CPU = 0.000 seconds
    variable x0 equal ${x}
    variable x0 equal 10.4
    variable step equal ${step} + 1
    variable step equal 18 + 1
jump SELF loop_bead
if "${step} > ${N}" then "jump SELF end_inner"
    variable x equal ${x0} + ${dbead}
    variable x equal 10.4 + ${dbead}
    variable x equal 10.4 + 0.3
    variable y equal ${y0} + 1.5*${Ny}
    variable y equal 5 + 1.5*${Ny}
    variable y equal 5 + 1.5*20
    variable z equal ${z0} + 1.5*${Nz}
    variable z equal 6.5 + 1.5*${Nz}
    variable z equal 6.5 + 1.5*3
    create_atoms 2 single ${x} ${y} ${z}
    create_atoms 2 single 10.7 ${y} ${z}
    create_atoms 2 single 10.7 35 ${z}
    create_atoms 2 single 10.7 35 11
Created 0 atoms
  using lattice units in orthogonal box = (0 0 0) to (50.396842 50.396842 50.396842)
  create_atoms CPU = 0.000 seconds
    variable x0 equal ${x}
    variable x0 equal 10.7
    variable step equal ${step} + 1
    variable step equal 19 + 1
jump SELF loop_bead
if "${step} > ${N}" then "jump SELF end_inner"
jump SELF end_inner
variable x0 equal 5.0
variable y0 equal 5.0
variable step equal 1
next Ny
jump SELF loop_y
variable x0 equal 5.0
variable y0 equal 5.0
variable z0 equal 6.5
variable step equal 1
variable Ny loop ${Ny_val}
variable Ny loop 20
next Nz
jump SELF loop_z

###################################################################
# Create groups, finish setup, etc
#

group           all type 1 2
2845 atoms in group all
group           atoms type 1
2332 atoms in group atoms
group           polys type 2
513 atoms in group polys
#mass * 1.0
group		subA region lower
1166 atoms in group subA
group		subB region upper
1166 atoms in group subB
set group	subA vx 0.0 vy 0.0 vz 0.5
Setting atom values ...
  1166 settings made for vx
  1166 settings made for vy
  1166 settings made for vz
set group	subB vx -0.01 vy 0.02 vz -0.5
Setting atom values ...
  1166 settings made for vx
  1166 settings made for vy
  1166 settings made for vz

velocity 	all create 0.01 87287 loop geom
# If ellipsoid
set             group all mass 1.0
Setting atom values ...
  2845 settings made for mass
set             group all shape 0.3 0.4 0.2
Setting atom values ...
  2845 settings made for shape
set             group all quat/random 29898
Setting atom values ...
  2845 settings made for quat/random
set      	group all angmom 0.0 0.0 0.0
Setting atom values ...
  2845 settings made for angmom

neighbor        1.5 bin
neigh_modify    delay 0 every 100 check yes

###################################################################
# Pair interaction between non-bonded atoms
#
pair_style      lj/cut 1.12246152962189
pair_coeff      * * 1.0 1.0
pair_modify     shift yes

###################################################################
# Pair interaction between bonded atoms
#
create_bonds many polys polys 1 1.5 2.5
Generated 0 of 1 mixed pair_coeff terms from geometric mixing rule
Neighbor list info ...
  update: every = 100 steps, delay = 0 steps, check = yes
  max neighbors/atom: 2000, page size: 100000
  master list distance cutoff = 2.6224615
  ghost atom cutoff = 2.6224615
  binsize = 2.6224615, bins = 20 20 20
  2 neighbor lists, perpetual/occasional/extra = 1 1 0
  (1) command create_bonds, occasional, copy from (2)
      attributes: full, newton off
      pair build: copy/kk/device
      stencil: none
      bin: none
  (2) pair lj/cut/kk, perpetual
      attributes: full, newton off, kokkos_device
      pair build: full/bin/kk/device
      stencil: full/bin/3d
      bin: kk/device
ERROR on proc 0: New bond exceeded bonds per atom limit of 2 in create_bonds (src/create_bonds.cpp:293)
