LAMMPS data file via write_data, version 2 Aug 2023, timestep = 20000, units = lj

4913 atoms
1 atom types
4913 ellipsoids

0 18.71092107706955 xlo xhi
0 18.71092107706955 ylo yhi
0 18.71092107706955 zlo zhi

Atoms # ellipsoid/kk

2 1 1 0.6366197723675814 1.6731109278045366 0.11273313556614799 0.5788163125118247 0 0 0
3 1 1 0.6366197723675814 2.7717666273783683 0.365050142712624 0.08426319301534221 0 0 0
5 1 1 0.6366197723675814 4.300923773543537 0.2769549877676711 0.013607912875406797 0 0 0
296 1 1 0.6366197723675814 6.600212301565555 0.32876410595449956 0.72158336701831 0 0 0
10 1 1 0.6366197723675814 10.21454122255972 0.27143640830557353 0.03550363749673444 0 0 0
31 1 1 0.6366197723675814 14.410321997382388 0.6068088717301826 0.03708353067558242 0 0 0
16 1 1 0.6366197723675814 16.94586239069812 0.07178553478953412 0.21045438136525788 0 0 0
17 1 1 0.6366197723675814 18.04520807612385 0.04960781252506143 0.08146261204131178 0 0 0
19 1 1 0.6366197723675814 0.8938444853624355 0.9587992369811474 0.49347447811659717 0 0 0
20 1 1 0.6366197723675814 1.9638333810681308 1.116457793816195 0.36799400354340484 0 0 0
22 1 1 0.6366197723675814 3.834997281357858 1.297503312568839 0.3015499520384824 0 0 0
23 1 1 0.6366197723675814 5.070348260692614 1.0651900181791845 0.42315710130742623 0 0 0
24 1 1 0.6366197723675814 6.138682997114924 1.2587647271472544 0.11038234871051711 0 0 0
25 1 1 0.6366197723675814 7.279472670743813 0.9991430228772487 0.09835793823001238 0 0 0
315 1 1 0.6366197723675814 9.299151053640553 1.1534086816252123 0.24753925405977442 0 0 0
316 1 1 0.6366197723675814 10.384875960530495 1.31297234893795 0.584463399857127 0 0 0
28 1 1 0.6366197723675814 11.203008476450675 0.7776222465998187 0.03091927866036681 0 0 0
29 1 1 0.6366197723675814 12.21621740217768 0.8261049864567668 0.4137556045454544 0 0 0
30 1 1 0.6366197723675814 13.49841719882364 1.1046452238821722 0.5637488299761232 0 0 0
34 1 1 0.6366197723675814 17.546921350548548 0.9853539285235221 0.5108752085603331 0 0 0
36 1 1 0.6366197723675814 0.5789873089031459 2.0240020000068375 0.2853240676325571 0 0 0
330 1 1 0.6366197723675814 7.047264088546119 2.05463133511405 0.6645548640453367 0 0 0
331 1 1 0.6366197723675814 8.183759374147472 1.7963591767400915 0.7674872301609504 0 0 0
49 1 1 0.6366197723675814 15.73087124376851 1.7674738695289427 0.694275502232202 0 0 0
40 1 1 0.6366197723675814 4.594339610420483 2.148423237566491 0.19695101025675033 0 0 0
60 1 1 0.6366197723675814 8.859697736235557 2.6240678193552824 0.22185901888524162 0 0 0
336 1 1 0.6366197723675814 13.894789900359413 2.1829656965055144 0.5472320686213665 0 0 0
337 1 1 0.6366197723675814 14.899766806637073 2.509029571943759 0.7365514828555696 0 0 0
52 1 1 0.6366197723675814 0.09041830266232417 3.076968215659087 0.3212263030034676 0 0 0
55 1 1 0.6366197723675814 3.0465234834048767 3.439368560463056 0.0638030149929904 0 0 0
345 1 1 0.6366197723675814 4.227343961895243 3.4493638734816456 0.3450050171755741 0 0 0
57 1 1 0.6366197723675814 5.316428357714451 3.051652478330517 18.599875366767908 0 0 -1
59 1 1 0.6366197723675814 7.67049186955517 3.139615147526554 0.4168219492299187 0 0 0
61 1 1 0.6366197723675814 10.426371003599735 3.256154959036623 0.2487283005026474 0 0 0
352 1 1 0.6366197723675814 12.234101296560526 3.480043395736968 0.440669952770653 0 0 0
65 1 1 0.6366197723675814 14.120478545810496 3.220702427184124 0.09580958225090347 0 0 0
68 1 1 0.6366197723675814 17.539204837871512 3.0581504497219005 18.69931072832968 0 0 -1
343 1 1 0.6366197723675814 1.9622548732947367 3.617761203834699 0.4705526160383857 0 0 0
363 1 1 0.6366197723675814 5.101736461712199 4.151635873079592 0.2393016237476124 0 0 0
78 1 1 0.6366197723675814 9.621983121866881 4.155465249056567 0.19004825161197478 0 0 0
79 1 1 0.6366197723675814 10.745423392569032 4.307660646991746 0.4218088134763761 0 0 0
82 1 1 0.6366197723675814 13.748298885442388 4.309017179187995 0.35896987964066235 0 0 0
67 1 1 0.6366197723675814 16.228268554891145 3.793655150863658 0.4610534291065391 0 0 0
69 1 1 0.6366197723675814 18.366412429346024 4.072271606349961 0.23392707643470723 -1 0 0
70 1 1 0.6366197723675814 0.7512233923415205 4.461261904865178 0.22367637486801029 0 0 0
71 1 1 0.6366197723675814 1.8235766442608845 4.697923419530522 0.15334169409369586 0 0 0
73 1 1 0.6366197723675814 3.848364991357139 4.521774447387981 0.1203373058535381 0 0 0
364 1 1 0.6366197723675814 6.258386711256496 4.401983724109971 0.5956971618596913 0 0 0
80 1 1 0.6366197723675814 11.835196391088834 4.483908234673858 0.5597719552135144 0 0 0
372 1 1 0.6366197723675814 15.247602365545934 4.485597103046371 0.5684999087363539 0 0 0
85 1 1 0.6366197723675814 16.976252909845748 4.475732823948491 18.66293828342404 0 0 -1
86 1 1 0.6366197723675814 0.10527573079602576 5.372123978194815 0.12945246590868725 0 0 0
88 1 1 0.6366197723675814 2.705011424123369 5.418048577034153 0.16276909394871783 0 0 0
94 1 1 0.6366197723675814 9.129951280593867 5.159928624883472 0.38909767324610334 0 0 0
95 1 1 0.6366197723675814 10.237792199061012 5.585096391039581 0.5538556812848537 0 0 0
96 1 1 0.6366197723675814 11.261899779334547 5.534267927713899 0.14617744423886345 0 0 0
387 1 1 0.6366197723675814 13.444022787037927 5.418183869719231 0.27346988482607737 0 0 0
84 1 1 0.6366197723675814 15.941704935582552 5.127744487811908 18.681308874530323 0 0 -1
89 1 1 0.6366197723675814 3.708004935019774 5.855203012726544 0.6257093124001231 0 0 0
108 1 1 0.6366197723675814 5.695639314881225 6.130663595367465 0.32196328802566476 0 0 0
109 1 1 0.6366197723675814 6.752823972805586 6.0083153375714815 0.05786401465065451 0 0 0
93 1 1 0.6366197723675814 8.096521530690497 5.703435714013901 0.33104827121890845 0 0 0
112 1 1 0.6366197723675814 9.532146791710552 6.465650160285777 0.21598596748586738 0 0 0
115 1 1 0.6366197723675814 13.058494968814301 6.396089042835153 0.6571930708352017 0 0 0
100 1 1 0.6366197723675814 16.16159951976575 6.1721837533495645 0.3542335932031459 0 0 0
105 1 1 0.6366197723675814 1.6274842457937204 6.645635341831004 0.39928132430545404 0 0 0
106 1 1 0.6366197723675814 2.880486745205375 6.617948956965795 0.16964348833386794 0 0 0
107 1 1 0.6366197723675814 3.9709622808468277 6.833916993437159 0.04429524054330057 0 0 0
111 1 1 0.6366197723675814 8.429784885219075 6.802972899830083 0.21620088461631176 0 0 0
113 1 1 0.6366197723675814 10.765622015055085 6.478132197874798 0.05750716920210707 0 0 0
114 1 1 0.6366197723675814 12.0228239221549 6.806587156660593 0.4557023657299756 0 0 0
133 1 1 0.6366197723675814 13.981701525486425 7.126342982451535 0.573481744833361 0 0 0
117 1 1 0.6366197723675814 15.175635123796154 6.664203476998304 0.43922010509766873 0 0 0
123 1 1 0.6366197723675814 3.041705788192258 7.777280606351821 0.16053281884350312 0 0 0
416 1 1 0.6366197723675814 8.08028206393468 7.898100972518042 0.1548027139911239 0 0 0
129 1 1 0.6366197723675814 10.057250480670188 7.46077962952373 18.650775052216208 0 0 -1
118 1 1 0.6366197723675814 16.24973638694911 7.254837144581576 0.00913632245041505 0 0 0
120 1 1 0.6366197723675814 18.192203714483824 7.488379780917543 0.256265132998596 -1 0 0
411 1 1 0.6366197723675814 2.0070384218711785 7.908840923093396 0.41777868803526935 0 0 0
142 1 1 0.6366197723675814 4.902114478047819 8.523372879140632 0.5243181743596927 0 0 0
143 1 1 0.6366197723675814 6.81104627132871 8.251846993704719 0.1237216459900444 0 0 0
131 1 1 0.6366197723675814 11.79393438552422 8.125960931364526 0.19171481241744298 0 0 0
150 1 1 0.6366197723675814 14.181821105176867 8.5670392785619 0.34453045659326 0 0 0
426 1 1 0.6366197723675814 0.3128588184166322 9.265562546034884 0.4685762346545634 0 0 0
138 1 1 0.6366197723675814 1.1635160590797868 8.648269845992411 0.03557766170820685 0 0 0
429 1 1 0.6366197723675814 2.5109104585741684 8.861757190438288 0.501913823138645 0 0 0
144 1 1 0.6366197723675814 7.551447642578078 9.074840103352017 0.33016357971138677 0 0 0
145 1 1 0.6366197723675814 8.728131637697295 9.210232941480252 0.16858749041295565 0 0 0
146 1 1 0.6366197723675814 9.802524176947946 8.717151173032084 0.0396949397357974 0 0 0
148 1 1 0.6366197723675814 12.178033623746618 9.2840034266874 0.36771596271396095 0 0 0
151 1 1 0.6366197723675814 15.309617942106884 9.155973634174574 0.24967997885052978 0 0 0
153 1 1 0.6366197723675814 17.999165806928417 8.920074292677834 0.18260748826944553 0 0 0
139 1 1 0.6366197723675814 1.754705831408802 9.75393161673682 0.43130233261528955 0 0 0
158 1 1 0.6366197723675814 4.228551326707754 9.692115752545295 0.30928935165823285 0 0 0
159 1 1 0.6366197723675814 5.632488285744002 9.340322065768193 0.31172286562317464 0 0 0
164 1 1 0.6366197723675814 10.628097141802376 9.514532295498269 0.4677810812973717 0 0 0
456 1 1 0.6366197723675814 13.183615786366735 9.726972477991154 0.6641399402338514 0 0 0
169 1 1 0.6366197723675814 16.425064789141558 9.835302645211215 0.4862367519141932 0 0 0
443 1 1 0.6366197723675814 0.10388801821924976 10.293536077562193 0.8077433420920945 0 0 0
156 1 1 0.6366197723675814 2.7979053318239133 10.41689779973804 0.23079432023836283 0 0 0
175 1 1 0.6366197723675814 3.866235526615628 10.743923351158019 0.25449764810789255 0 0 0
176 1 1 0.6366197723675814 5.0818029778013045 10.57293611578995 0.08383633446969747 0 0 0
162 1 1 0.6366197723675814 8.765137700685342 10.52580193497045 0.686663477075223 0 0 0
184 1 1 0.6366197723675814 14.33805395136964 10.71296263237853 0.3242225534504907 0 0 0
178 1 1 0.6366197723675814 7.730329013740479 11.168052849379333 0.1521706315556175 0 0 0
180 1 1 0.6366197723675814 9.817220938361325 11.137072393192696 0.22082794045229714 0 0 0
182 1 1 0.6366197723675814 11.901769885038641 11.223546538937685 0.6717111772236191 0 0 0
183 1 1 0.6366197723675814 12.895885546533357 11.402114250353783 0.11265801738408478 0 0 0
185 1 1 0.6366197723675814 15.591310275280513 11.141454643405442 0.39378468152823026 0 0 0
186 1 1 0.6366197723675814 16.63771163557202 10.875852186494685 0.16362821055611276 0 0 0
187 1 1 0.6366197723675814 18.03298649852858 10.971262854665182 0.18000258106130032 0 0 0
174 1 1 0.6366197723675814 3.3626036764561977 11.836648250827675 0.345126655303683 0 0 0
193 1 1 0.6366197723675814 5.58576771384537 11.684614344770202 0.034876981951558 0 0 0
468 1 1 0.6366197723675814 8.714323691001752 11.937701587631999 0.7243694300353771 0 0 0
198 1 1 0.6366197723675814 10.881088412531497 11.624014905010416 0.0024396764118942748 0 0 0
199 1 1 0.6366197723675814 11.937332840042483 12.172346231825859 0.06794405173719364 0 0 0
201 1 1 0.6366197723675814 13.969503711258044 11.74688512826102 18.63671320601071 0 0 -1
493 1 1 0.6366197723675814 17.988619203291716 12.36980622450608 0.7415869641375042 0 0 0
477 1 1 0.6366197723675814 0.4235436479724096 12.612937340092003 0.3701928213825529 0 0 0
190 1 1 0.6366197723675814 2.4788424221086625 12.742264964961304 0.2870838973841535 0 0 0
498 1 1 0.6366197723675814 4.314676092326879 12.575147612077572 0.5529287020289287 0 0 0
197 1 1 0.6366197723675814 10.120092210953324 12.191972877195237 0.6312124862023972 0 0 0
215 1 1 0.6366197723675814 11.018938869964275 12.775493595892383 0.06715135388713057 0 0 0
218 1 1 0.6366197723675814 14.02711655998976 12.82323713176324 0.22217286652324458 0 0 0
508 1 1 0.6366197723675814 15.167959603084686 12.640887580091773 0.7171329801623618 0 0 0
221 1 1 0.6366197723675814 17.2046076423506 12.852060163212858 0.22831450555368468 0 0 0
210 1 1 0.6366197723675814 4.847220426529614 13.54240492711437 0.11789732730598368 0 0 0
501 1 1 0.6366197723675814 7.734310753017011 13.230116247632338 0.6880327711137278 0 0 0
213 1 1 0.6366197723675814 8.93838256745884 13.256765641004218 0.39650157008857845 0 0 0
216 1 1 0.6366197723675814 12.254655628364533 13.293952441673643 0.48403516460499935 0 0 0
506 1 1 0.6366197723675814 13.350550436715569 13.692359449769226 0.6729867247386379 0 0 0
205 1 1 0.6366197723675814 18.525871187105533 13.487264615060694 0.5347354732760237 -1 0 0
209 1 1 0.6366197723675814 3.8001187713670466 13.908872578503246 0.2877153159144626 0 0 0
516 1 1 0.6366197723675814 5.865519114807831 14.120851655566579 0.5722739859352479 0 0 0
230 1 1 0.6366197723675814 7.8692472636694895 14.156084656353391 0.012458254927068419 0 0 0
231 1 1 0.6366197723675814 10.229942198275245 14.329713857172882 0.1780465729263849 0 0 0
521 1 1 0.6366197723675814 11.207307144945466 13.915437829259135 0.4859557497717246 0 0 0
526 1 1 0.6366197723675814 16.80163706451894 13.959580898162205 0.6145661759327907 0 0 0
222 1 1 0.6366197723675814 0.20410989378901873 14.557110347611957 0.3745040000144288 0 0 0
513 1 1 0.6366197723675814 1.5858341558085738 14.944085665184303 0.5760356744518154 0 0 0
225 1 1 0.6366197723675814 3.042081455201947 14.743812034826236 0.4420696745370736 0 0 0
519 1 1 0.6366197723675814 9.021739640847354 14.398217928505073 0.4004665758815998 0 0 0
234 1 1 0.6366197723675814 13.57710997410477 14.728806470077481 0.2468878865365063 0 0 0
524 1 1 0.6366197723675814 14.69918410755865 14.720886363231022 0.675032587734924 0 0 0
533 1 1 0.6366197723675814 5.136457252404686 15.046854188357141 0.6975298982497392 0 0 0
245 1 1 0.6366197723675814 6.306632639854579 15.250307722229124 0.46825949460429156 0 0 0
538 1 1 0.6366197723675814 10.497223959791127 15.60238807009279 0.3401880066590018 0 0 0
250 1 1 0.6366197723675814 12.488107184205802 15.281925852012744 0.021797529502838753 0 0 0
253 1 1 0.6366197723675814 15.606506413502595 15.414270300875097 0.0391658258478343 0 0 0
544 1 1 0.6366197723675814 17.044889402414302 15.080009970512585 0.6513100055175645 0 0 0
272 1 1 0.6366197723675814 17.956968028873376 15.799280034961427 0.30538023699656675 0 0 0
257 1 1 0.6366197723675814 1.4419531342700935 16.607660295571424 0.25626060989723404 0 0 0
242 1 1 0.6366197723675814 3.403842339151403 15.821759370467088 0.4070218729664363 0 0 0
262 1 1 0.6366197723675814 6.7471543812186185 16.25681059658147 0.13369847926883618 0 0 0
246 1 1 0.6366197723675814 7.7970713651050865 16.04583294387579 0.4793929149459017 0 0 0
556 1 1 0.6366197723675814 12.095881837750891 16.271075767500346 0.6326325127395998 0 0 0
269 1 1 0.6366197723675814 14.524792372438803 15.867872593002163 0.4285513737577778 0 0 0
560 1 1 0.6366197723675814 16.37830212929857 15.971093665000392 0.5575066067895483 0 0 0
256 1 1 0.6366197723675814 0.15634005437559598 16.752607650069965 0.45131434362965606 0 0 0
258 1 1 0.6366197723675814 2.538538453842222 16.534449318412463 0.4642545155194708 0 0 0
549 1 1 0.6366197723675814 4.189240653152406 17.007680771721006 0.5888857423864963 0 0 0
261 1 1 0.6366197723675814 5.343944959503172 16.76535576852042 0.23388814701793886 0 0 0
553 1 1 0.6366197723675814 8.911831287778787 16.6815626801944 0.5890076610396525 0 0 0
265 1 1 0.6366197723675814 9.99521812430332 16.896940414331034 0.27075300330988006 0 0 0
268 1 1 0.6366197723675814 13.143708943612365 16.703679754820417 0.5743992132727569 0 0 0
286 1 1 0.6366197723675814 14.403677030497313 16.986249840877438 0.2915248148651068 0 0 0
563 1 1 0.6366197723675814 1.7648072618112334 17.56962418128128 0.6864697088207167 0 0 0
566 1 1 0.6366197723675814 4.889258637052572 17.9524948645138 0.5135525262036457 0 0 0
279 1 1 0.6366197723675814 6.951352980955321 17.998205349246362 0.24212813145645687 0 0 0
572 1 1 0.6366197723675814 10.465420621875607 17.808052648771973 0.736916407999299 0 0 0
284 1 1 0.6366197723675814 11.886447400830573 17.443858684621514 0.17705111342355218 0 0 0
576 1 1 0.6366197723675814 15.370534767373721 17.567459222478988 0.4460623555666301 0 0 0
289 1 1 0.6366197723675814 17.530197479306686 17.691829396061564 0.4834712541385928 0 0 0
274 1 1 0.6366197723675814 0.8673226131927873 18.084186730389746 0.31903985400568335 0 0 0
276 1 1 0.6366197723675814 3.571234264743331 18.19139393723365 0.19924284855996174 0 0 0
8 1 1 0.6366197723675814 7.948064099083319 18.56965206601972 0.1726582610079201 0 -1 0
9 1 1 0.6366197723675814 9.111030606807413 0.047537248842298985 0.33237169292357227 0 0 0
13 1 1 0.6366197723675814 13.329031032263696 18.63798188567665 0.1428102131348721 0 -1 0
14 1 1 0.6366197723675814 14.34123482981576 18.141439242675734 0.0031789916520807903 0 -1 0
15 1 1 0.6366197723675814 15.856264352380725 18.569585418151423 0.4177151145734019 0 -1 0
290 1 1 0.6366197723675814 0.3572066953631176 0.09508459164506003 0.9290203421211782 0 0 0
293 1 1 0.6366197723675814 3.578081754351363 0.3692745532007452 0.9002284443163812 0 0 0
295 1 1 0.6366197723675814 5.433225507288902 0.04099154481363992 1.1097731607723318 0 0 0
300 1 1 0.6366197723675814 10.761792858858595 0.2810263055709094 1.0947141218266379 0 0 0
302 1 1 0.6366197723675814 12.916237272856307 0.2789335303605203 1.1246285660082218 0 0 0
303 1 1 0.6366197723675814 14.113471962124251 0.32043020481496853 1.0454441473714244 0 0 0
321 1 1 0.6366197723675814 15.221763680420564 0.5948184168875195 1.1800584582953615 0 0 0
311 1 1 0.6366197723675814 4.560675878665627 0.745796450393289 1.4571620806991634 0 0 0
312 1 1 0.6366197723675814 6.027549444920246 1.1698336138336216 1.2244042481462567 0 0 0
313 1 1 0.6366197723675814 7.172316007657313 1.0920460002522532 1.2754332351656807 0 0 0
314 1 1 0.6366197723675814 8.201515502412505 0.7544991048566686 0.8468651944440231 0 0 0
320 1 1 0.6366197723675814 14.454608776787328 1.4493058126341045 1.0935004799278734 0 0 0
322 1 1 0.6366197723675814 16.373349218831198 0.7601898107035967 1.0582343839815815 0 0 0
307 1 1 0.6366197723675814 18.532900556460337 1.1089680458177922 1.1606904661168367 -1 0 0
309 1 1 0.6366197723675814 1.961909776425013 1.6824730597379751 1.4907203157309863 0 0 0
21 1 1 0.6366197723675814 2.855858947974778 1.5102229964813894 0.8333913392263544 0 0 0
328 1 1 0.6366197723675814 4.965099350968028 1.897586212263195 1.2591231766143047 0 0 0
332 1 1 0.6366197723675814 9.293315815009855 2.013136929612343 0.9709173257657921 0 0 0
334 1 1 0.6366197723675814 11.34770456510821 1.8563058588769503 0.7446382277207159 0 0 0
335 1 1 0.6366197723675814 12.835809958813266 1.9813301908503154 0.8817884669439034 0 0 0
339 1 1 0.6366197723675814 16.89507593467699 1.8646439012105869 0.8352017146589857 0 0 0
340 1 1 0.6366197723675814 18.05181004047825 2.0467195227711477 0.7398114424135747 0 0 0
324 1 1 0.6366197723675814 0.21426480742333737 2.4283173707834753 1.3086663852175455 0 0 0
342 1 1 0.6366197723675814 1.3080940386707143 2.721613487086706 0.8806042743773888 0 0 0
326 1 1 0.6366197723675814 2.6064847447817288 2.6318810779387114 1.1411937220189146 0 0 0
327 1 1 0.6366197723675814 3.8517194383291984 2.2296559688553836 1.040934379378 0 0 0
329 1 1 0.6366197723675814 5.919826837937535 2.251779493747724 0.8175610739921878 0 0 0
620 1 1 0.6366197723675814 7.401641734689189 2.7485088338342534 1.4952405632842267 0 0 0
349 1 1 0.6366197723675814 8.52639170697835 2.8465247598431076 1.267569081619531 0 0 0
333 1 1 0.6366197723675814 10.284664484587585 2.3633626188333388 1.0152163612309382 0 0 0
355 1 1 0.6366197723675814 15.822707004052095 2.787201405381011 1.2538365217286076 0 0 0
356 1 1 0.6366197723675814 16.95902968423651 2.853576788669929 1.3733244338677506 0 0 0
344 1 1 0.6366197723675814 3.409875896754887 3.4162164611707375 1.3957022771246028 0 0 0
346 1 1 0.6366197723675814 4.770326361094336 3.028004191206962 1.2436711973940728 0 0 0
347 1 1 0.6366197723675814 6.542357643167327 3.333892533179618 0.8210324138811321 0 0 0
350 1 1 0.6366197723675814 9.524729070985964 3.312749134970881 0.9486739599482912 0 0 0
351 1 1 0.6366197723675814 11.287404485002902 2.958249545067053 0.978252153851258 0 0 0
353 1 1 0.6366197723675814 13.299290356991982 3.1580191868312 0.843238131325376 0 0 0
357 1 1 0.6366197723675814 18.021475572510084 3.090871887958765 1.0914666827863597 0 0 0
341 1 1 0.6366197723675814 0.5106327586183008 3.626381996516855 1.2248215851343016 0 0 0
361 1 1 0.6366197723675814 2.962169552207345 4.26054925466325 0.8754932651793307 0 0 0
362 1 1 0.6366197723675814 4.383080976661587 4.196729743737862 1.2260449934688527 0 0 0
348 1 1 0.6366197723675814 7.601977052851665 3.935169255752833 1.2419052624663858 0 0 0
366 1 1 0.6366197723675814 8.63438656651147 4.183126943197684 0.855049119147167 0 0 0
354 1 1 0.6366197723675814 14.233272287192912 3.6409726518374583 1.133636476479911 0 0 0
644 1 1 0.6366197723675814 15.33544578617644 3.7118499209683273 1.4654190311489632 0 0 0
374 1 1 0.6366197723675814 17.303959091585526 3.9890076591680357 1.0945812276843767 0 0 0
359 1 1 0.6366197723675814 1.4068074926505298 4.311927247043633 1.2288282934483519 0 0 0
365 1 1 0.6366197723675814 7.322037652178479 4.862852993565027 0.7648817068754197 0 0 0
367 1 1 0.6366197723675814 9.707031418663659 4.374596015672694 1.376674694398665 0 0 0
370 1 1 0.6366197723675814 12.900286451954713 4.5097424221219455 1.0877967934492347 0 0 0
371 1 1 0.6366197723675814 13.984859521101685 4.809319446004232 1.407631178275023 0 0 0
373 1 1 0.6366197723675814 16.1195801960247 4.673913284367623 1.1818285018796233 0 0 0
358 1 1 0.6366197723675814 0.5009428675586445 4.962272027336948 1.194396648756986 0 0 0
376 1 1 0.6366197723675814 1.461766881573044 5.526871880397046 0.80717386875762 0 0 0
360 1 1 0.6366197723675814 2.276910619939603 4.969270255488857 1.3066434006216034 0 0 0
379 1 1 0.6366197723675814 4.378744108043102 5.314270383818248 1.4543369780497846 0 0 0
380 1 1 0.6366197723675814 5.27105102676205 5.147829352858808 0.6825549435926065 0 0 0
381 1 1 0.6366197723675814 6.280718386559323 5.422040582183659 1.0873629688270354 0 0 0
383 1 1 0.6366197723675814 8.25880246279215 5.0966112703987525 1.3947836056923812 0 0 0
385 1 1 0.6366197723675814 11.12428253646034 5.086020619764905 1.1688745105683636 0 0 0
386 1 1 0.6366197723675814 12.252316787671866 5.565650162963046 0.8141698791233501 0 0 0
389 1 1 0.6366197723675814 15.261466751948577 5.610125063983404 0.6894896346219263 0 0 0
101 1 1 0.6366197723675814 16.892378326428133 5.350639271297368 0.696579633318806 0 0 0
391 1 1 0.6366197723675814 17.829812112337297 5.108874798727853 1.330854763362659 0 0 0
104 1 1 0.6366197723675814 0.6372334553039445 6.329002127898092 0.7919181984786094 0 0 0
377 1 1 0.6366197723675814 2.3948064766997574 6.168297869292749 1.052102591658998 0 0 0
382 1 1 0.6366197723675814 7.76601688311735 6.08329146506633 1.3759739411700802 0 0 0
400 1 1 0.6366197723675814 8.812472223623027 6.189015321833999 1.0755288950859303 0 0 0
388 1 1 0.6366197723675814 14.125556448448606 5.9635451834233875 1.1628866090288859 0 0 0
407 1 1 0.6366197723675814 17.062355140891064 6.436029262784685 1.0440072896387043 0 0 0
408 1 1 0.6366197723675814 18.194869093124943 6.069717388302178 0.852120715186285 0 0 0
392 1 1 0.6366197723675814 0.11020267320235233 7.26346485049385 1.221502040081006 0 0 0
395 1 1 0.6366197723675814 3.400837999414277 6.727111863856006 1.3365019876432822 0 0 0
396 1 1 0.6366197723675814 4.47570890446006 6.549539076393949 1.0774677344838046 0 0 0
397 1 1 0.6366197723675814 5.491884899711481 7.113868772077591 0.9491749297133067 0 0 0
398 1 1 0.6366197723675814 6.741206902710694 6.939919223942429 0.7951327326866563 0 0 0
399 1 1 0.6366197723675814 7.840760068113022 7.209314654883329 1.0927144339099129 0 0 0
401 1 1 0.6366197723675814 9.895207081520462 6.645854804663524 1.2663401262175111 0 0 0
402 1 1 0.6366197723675814 11.238966100386087 6.629627512133413 1.221375069634495 0 0 0
410 1 1 0.6366197723675814 1.2754087252352162 7.562519208885216 1.1178132021521598 0 0 0
394 1 1 0.6366197723675814 2.406919178556051 7.240042148695119 1.2956700604550186 0 0 0
413 1 1 0.6366197723675814 4.2491080466784235 7.6401452505933625 0.755632351161376 0 0 0
417 1 1 0.6366197723675814 8.906718632499128 7.3710817851986485 1.1435391540249613 0 0 0
130 1 1 0.6366197723675814 10.824878850679722 7.607149049840029 0.8879219235705366 0 0 0
420 1 1 0.6366197723675814 11.846854880942061 7.851733990118239 1.2797134126317693 0 0 0
421 1 1 0.6366197723675814 12.923907804139905 7.551463374101348 0.7089267456991681 0 0 0
423 1 1 0.6366197723675814 15.204673374535817 7.687287421487071 0.9288327868871687 0 0 0
424 1 1 0.6366197723675814 16.87594199994762 7.607815167440545 0.8475239809418548 0 0 0
409 1 1 0.6366197723675814 0.42460390062469816 8.20357854598894 0.899045798766165 0 0 0
412 1 1 0.6366197723675814 3.075248095454514 8.159869423324588 1.2817566920155037 0 0 0
415 1 1 0.6366197723675814 6.02154948779248 8.11338302176328 0.8554325792474757 0 0 0
705 1 1 0.6366197723675814 7.134542505249247 8.08482406201484 1.109532451020912 0 0 0
434 1 1 0.6366197723675814 8.593476488408466 8.444206592512401 1.017680005379364 0 0 0
418 1 1 0.6366197723675814 9.8172570152992 8.067515170680672 1.0938632935176655 0 0 0
438 1 1 0.6366197723675814 13.03007011773555 8.659725485548702 0.9312463808369456 0 0 0
422 1 1 0.6366197723675814 13.970755857289618 7.9388805120639985 1.3385839654801943 0 0 0
425 1 1 0.6366197723675814 18.03329767116779 8.214720169810533 1.021393680792653 0 0 0
427 1 1 0.6366197723675814 1.4546025597711538 8.746165807327056 1.1144182647220569 0 0 0
141 1 1 0.6366197723675814 3.8995632512945297 8.794823282218998 0.877913021320332 0 0 0
431 1 1 0.6366197723675814 5.6118345569020045 9.129296181303829 1.4275828765495853 0 0 0
432 1 1 0.6366197723675814 6.673382618003224 9.225122107669254 1.0366344597867745 0 0 0
435 1 1 0.6366197723675814 9.797780463577158 9.21018987637032 1.0738006410782555 0 0 0
436 1 1 0.6366197723675814 10.768051821628617 8.684448576708906 1.2174414936290043 0 0 0
437 1 1 0.6366197723675814 11.903108903124744 8.955899590395553 1.4281263411948608 0 0 0
440 1 1 0.6366197723675814 14.834577851003756 8.693533079664048 1.2953957355991979 0 0 0
441 1 1 0.6366197723675814 15.983244270972238 8.767348239738421 1.0433471079280543 0 0 0
730 1 1 0.6366197723675814 16.998791160491262 9.149893900600212 1.2857545410146796 0 0 0
444 1 1 0.6366197723675814 1.0291239921147681 9.781703543582655 1.335591750850195 0 0 0
446 1 1 0.6366197723675814 3.238318921623216 9.728213233530596 0.9878531465181281 0 0 0
448 1 1 0.6366197723675814 4.906092936502673 10.035795677558818 1.1209060392040116 0 0 0
457 1 1 0.6366197723675814 14.602816414483733 9.744858627645081 0.8762020978676042 0 0 0
458 1 1 0.6366197723675814 15.618324760440613 9.786196606938773 1.3223004104546048 0 0 0
442 1 1 0.6366197723675814 18.078436956802932 9.520879346184074 1.1465669487875665 0 0 0
461 1 1 0.6366197723675814 1.20982728444559 10.760585619655538 0.9102873584801403 0 0 0
449 1 1 0.6366197723675814 6.215200353636401 10.207806732485597 1.1028530824488818 0 0 0
450 1 1 0.6366197723675814 7.363543572542827 10.086330202077056 0.7647999658463854 0 0 0
452 1 1 0.6366197723675814 9.758181598144162 10.345034868739551 1.0363591952064275 0 0 0
454 1 1 0.6366197723675814 11.762194382194412 10.139250455955048 0.9842775668107351 0 0 0
471 1 1 0.6366197723675814 12.619670043542666 10.770304953186226 1.3802131776651396 0 0 0
474 1 1 0.6366197723675814 14.886817366247753 10.67701119721615 1.4143804622688974 0 0 0
475 1 1 0.6366197723675814 16.332468538825186 10.84050597391718 1.2763577881311028 0 0 0
459 1 1 0.6366197723675814 17.32383424918476 10.326003724804778 1.1079323041582385 0 0 0
460 1 1 0.6366197723675814 0.17813428406545262 11.413544166947892 0.7871643582011736 0 0 0
462 1 1 0.6366197723675814 2.3505035924935385 11.304022984591834 0.7755846829672157 0 0 0
463 1 1 0.6366197723675814 3.2913781954958727 10.831581542227424 1.2178199044977989 0 0 0
464 1 1 0.6366197723675814 4.485195330087451 11.034998284616135 1.1530701902562575 0 0 0
465 1 1 0.6366197723675814 5.640867482355234 11.180084910150574 1.0401183119671316 0 0 0
466 1 1 0.6366197723675814 6.780107764837983 11.12284683618073 0.8594103259074196 0 0 0
467 1 1 0.6366197723675814 8.08523842807728 11.272333387754893 1.387104268097183 0 0 0
469 1 1 0.6366197723675814 9.489063305245631 11.440954438731398 1.2834711434528698 0 0 0
181 1 1 0.6366197723675814 10.790314851411557 10.827252308197554 0.8116613112304549 0 0 0
472 1 1 0.6366197723675814 13.608430569390942 11.325935643821841 1.0022473136601362 0 0 0
476 1 1 0.6366197723675814 17.70667612560999 11.365395824286484 1.2242871929511667 0 0 0
478 1 1 0.6366197723675814 1.273517341365325 11.901708958673552 0.8776047587906736 0 0 0
480 1 1 0.6366197723675814 3.7312231094270722 11.902895118760583 1.4158954777426298 0 0 0
481 1 1 0.6366197723675814 4.8663876817710054 12.034066976365455 1.3106902276734191 0 0 0
482 1 1 0.6366197723675814 6.263058186538976 12.112451610694672 1.0290917232295536 0 0 0
483 1 1 0.6366197723675814 7.374518558469478 12.077457356871946 0.7548868046054017 0 0 0
487 1 1 0.6366197723675814 10.846897337344018 11.820133797022589 1.352961484159719 0 0 0
490 1 1 0.6366197723675814 14.70097101486877 11.625270424874843 0.8571019033050653 0 0 0
491 1 1 0.6366197723675814 15.898788131184626 11.930382075970297 1.2899211060064406 0 0 0
492 1 1 0.6366197723675814 16.842107426718908 11.899468172831561 0.7212900160032784 0 0 0
495 1 1 0.6366197723675814 1.5576359708580862 13.015273413137702 0.8142876209261828 0 0 0
479 1 1 0.6366197723675814 2.261045614817049 12.331329810651718 1.3689834113935113 0 0 0
488 1 1 0.6366197723675814 11.583886611337373 12.588137823730072 1.0450607690155518 0 0 0
200 1 1 0.6366197723675814 12.793097870528092 12.326090814983539 0.8308486457278426 0 0 0
489 1 1 0.6366197723675814 14.048654302837864 12.488984319590944 1.382341999317494 0 0 0
509 1 1 0.6366197723675814 16.52946825949502 12.90544294916853 1.1401166913777063 0 0 0
494 1 1 0.6366197723675814 0.44898654223233403 13.073106399458638 1.3853653811249118 0 0 0
497 1 1 0.6366197723675814 3.3076206253151987 12.949480235825467 1.0146713548894757 0 0 0
499 1 1 0.6366197723675814 5.370329364573334 12.984312125915315 0.9383093555140634 0 0 0
500 1 1 0.6366197723675814 6.6075946680945785 13.250068210038494 0.9063389072891577 0 0 0
502 1 1 0.6366197723675814 8.694974333239237 13.607361128333288 1.3189079038516993 0 0 0