LAMMPS data file via write_data, version 2 Aug 2023, timestep = 20000, units = lj

4913 atoms
1 atom types
4913 ellipsoids

0 18.71092107706955 xlo xhi
0 18.71092107706955 ylo yhi
0 18.71092107706955 zlo zhi

Atoms # ellipsoid/kk

2 1 1 0.6366197723675814 1.6731109277841398 0.1127331355681236 0.5788163124892723 0 0 0
3 1 1 0.6366197723675814 2.7717666273984936 0.365050142751686 0.08426319300955949 0 0 0
5 1 1 0.6366197723675814 4.300923773553858 0.27695498776678723 0.013607912879266042 0 0 0
296 1 1 0.6366197723675814 6.600212301570476 0.3287641059454895 0.7215833670014489 0 0 0
10 1 1 0.6366197723675814 10.21454122254981 0.2714364083006086 0.03550363750422886 0 0 0
31 1 1 0.6366197723675814 14.410321997406495 0.6068088717440909 0.037083530684703866 0 0 0
16 1 1 0.6366197723675814 16.9458623906872 0.0717855347856266 0.210454381353624 0 0 0
17 1 1 0.6366197723675814 18.045208076132823 0.04960781253918896 0.0814626120486371 0 0 0
19 1 1 0.6366197723675814 0.893844485349526 0.9587992369938111 0.4934744781121541 0 0 0
20 1 1 0.6366197723675814 1.9638333810497801 1.1164577938053912 0.36799400355282946 0 0 0
22 1 1 0.6366197723675814 3.8349972813770807 1.297503312578424 0.3015499520387402 0 0 0
23 1 1 0.6366197723675814 5.070348260681937 1.0651900181828284 0.4231571013232866 0 0 0
24 1 1 0.6366197723675814 6.138682997123443 1.258764727144482 0.11038234870797184 0 0 0
25 1 1 0.6366197723675814 7.279472670761475 0.9991430228662227 0.09835793821981675 0 0 0
315 1 1 0.6366197723675814 9.299151053641335 1.1534086816304896 0.24753925405624574 0 0 0
316 1 1 0.6366197723675814 10.384875960528307 1.3129723489455074 0.584463399860357 0 0 0
28 1 1 0.6366197723675814 11.203008476432144 0.777622246599366 0.030919278649256542 0 0 0
29 1 1 0.6366197723675814 12.216217402173674 0.8261049864587785 0.41375560455110755 0 0 0
30 1 1 0.6366197723675814 13.498417198823885 1.104645223881588 0.5637488299849643 0 0 0
34 1 1 0.6366197723675814 17.546921350546565 0.9853539285424014 0.5108752085509254 0 0 0
36 1 1 0.6366197723675814 0.5789873088993347 2.024002000015289 0.2853240676584858 0 0 0
330 1 1 0.6366197723675814 7.047264088550385 2.0546313350971586 0.6645548640509905 0 0 0
331 1 1 0.6366197723675814 8.18375937414754 1.796359176745368 0.7674872301589365 0 0 0
49 1 1 0.6366197723675814 15.73087124373285 1.7674738695071213 0.6942755022113207 0 0 0
40 1 1 0.6366197723675814 4.5943396104262435 2.1484232375882684 0.19695101028662018 0 0 0
60 1 1 0.6366197723675814 8.85969773622723 2.6240678193588254 0.2218590188888179 0 0 0
336 1 1 0.6366197723675814 13.894789900353645 2.182965696507188 0.5472320686168577 0 0 0
337 1 1 0.6366197723675814 14.89976680663889 2.509029571925373 0.736551482865114 0 0 0
52 1 1 0.6366197723675814 0.0904183026760855 3.0769682156592792 0.32122630301105276 0 0 0
55 1 1 0.6366197723675814 3.0465234833905037 3.439368560437137 0.06380301497761336 0 0 0
345 1 1 0.6366197723675814 4.227343961898618 3.4493638734859613 0.3450050171605603 0 0 0
57 1 1 0.6366197723675814 5.31642835770215 3.051652478319 18.599875366761403 0 0 -1
59 1 1 0.6366197723675814 7.670491869547435 3.139615147519471 0.4168219492240907 0 0 0
61 1 1 0.6366197723675814 10.426371003604636 3.2561549590338066 0.2487283004963455 0 0 0
352 1 1 0.6366197723675814 12.234101296563633 3.480043395737412 0.44066995277182414 0 0 0
65 1 1 0.6366197723675814 14.120478545827675 3.2207024271831712 0.09580958223787264 0 0 0
68 1 1 0.6366197723675814 17.53920483786228 3.058150449735273 18.69931072832864 0 0 -1
343 1 1 0.6366197723675814 1.9622548732965832 3.617761203821635 0.4705526160379744 0 0 0
363 1 1 0.6366197723675814 5.101736461723917 4.15163587306222 0.23930162377177708 0 0 0
78 1 1 0.6366197723675814 9.621983121874004 4.155465249054071 0.19004825161658395 0 0 0
79 1 1 0.6366197723675814 10.745423392572196 4.30766064698557 0.421808813472347 0 0 0
82 1 1 0.6366197723675814 13.748298885439683 4.309017179189124 0.3589698796459414 0 0 0
67 1 1 0.6366197723675814 16.22826855491085 3.7936551508474876 0.46105342911386055 0 0 0
69 1 1 0.6366197723675814 18.366412429346905 4.072271606346776 0.23392707642318086 -1 0 0
70 1 1 0.6366197723675814 0.7512233923472007 4.461261904839336 0.22367637488292344 0 0 0
71 1 1 0.6366197723675814 1.8235766442662185 4.697923419541348 0.15334169411468854 0 0 0
73 1 1 0.6366197723675814 3.8483649913549653 4.521774447396579 0.12033730585781932 0 0 0
364 1 1 0.6366197723675814 6.258386711271201 4.401983724120514 0.5956971618633226 0 0 0
80 1 1 0.6366197723675814 11.835196391096883 4.483908234675049 0.5597719552162324 0 0 0
372 1 1 0.6366197723675814 15.247602365549481 4.485597103047077 0.5684999087497054 0 0 0
85 1 1 0.6366197723675814 16.9762529098496 4.4757328239411365 18.66293828341647 0 0 -1
86 1 1 0.6366197723675814 0.10527573078699907 5.372123978207121 0.1294524658962269 0 0 0
88 1 1 0.6366197723675814 2.705011424120199 5.418048577045095 0.16276909394470318 0 0 0
94 1 1 0.6366197723675814 9.129951280590308 5.159928624881947 0.3890976732467922 0 0 0
95 1 1 0.6366197723675814 10.237792199054152 5.585096391030752 0.5538556812894857 0 0 0
96 1 1 0.6366197723675814 11.261899779326981 5.534267927714987 0.14617744424901552 0 0 0
387 1 1 0.6366197723675814 13.444022787039378 5.41818386971508 0.2734698848338607 0 0 0
84 1 1 0.6366197723675814 15.941704935569156 5.127744487804725 18.681308874541365 0 0 -1
89 1 1 0.6366197723675814 3.7080049350360245 5.855203012735609 0.6257093124016304 0 0 0
108 1 1 0.6366197723675814 5.695639314844465 6.130663595379608 0.3219632880279702 0 0 0
109 1 1 0.6366197723675814 6.752823972811604 6.008315337568986 0.05786401464511955 0 0 0
93 1 1 0.6366197723675814 8.096521530684631 5.703435714009723 0.3310482712232846 0 0 0
112 1 1 0.6366197723675814 9.532146791705319 6.465650160284877 0.2159859674880757 0 0 0
115 1 1 0.6366197723675814 13.058494968818588 6.396089042838724 0.6571930708357443 0 0 0
100 1 1 0.6366197723675814 16.16159951977042 6.172183753357462 0.35423359319857983 0 0 0
105 1 1 0.6366197723675814 1.6274842457660654 6.645635341833649 0.3992813242794631 0 0 0
106 1 1 0.6366197723675814 2.880486745191416 6.617948956974777 0.16964348835044518 0 0 0
107 1 1 0.6366197723675814 3.970962280859186 6.83391699342413 0.04429524053140106 0 0 0
111 1 1 0.6366197723675814 8.42978488522061 6.802972899840713 0.21620088461888534 0 0 0
113 1 1 0.6366197723675814 10.765622015057467 6.478132197882097 0.05750716920106337 0 0 0
114 1 1 0.6366197723675814 12.022823922157832 6.806587156664971 0.45570236572704775 0 0 0
133 1 1 0.6366197723675814 13.98170152548255 7.126342982443606 0.5734817448334816 0 0 0
117 1 1 0.6366197723675814 15.175635123795516 6.664203477000587 0.4392201051092742 0 0 0
123 1 1 0.6366197723675814 3.0417057882022904 7.777280606343047 0.16053281883722828 0 0 0
416 1 1 0.6366197723675814 8.080282063935396 7.898100972528451 0.15480271399020007 0 0 0
129 1 1 0.6366197723675814 10.057250480670053 7.460779629510632 18.650775052214417 0 0 -1
118 1 1 0.6366197723675814 16.249736386951312 7.254837144591216 0.009136322438806015 0 0 0
120 1 1 0.6366197723675814 18.19220371448882 7.488379780904057 0.2562651329909639 -1 0 0
411 1 1 0.6366197723675814 2.0070384218775725 7.908840923093516 0.4177786880276848 0 0 0
142 1 1 0.6366197723675814 4.902114478057205 8.523372879149553 0.5243181743457275 0 0 0
143 1 1 0.6366197723675814 6.8110462713267035 8.251846993711393 0.12372164598286406 0 0 0
131 1 1 0.6366197723675814 11.793934385522649 8.125960931358948 0.19171481241749314 0 0 0
150 1 1 0.6366197723675814 14.18182110517701 8.56703927855011 0.34453045658417264 0 0 0
426 1 1 0.6366197723675814 0.3128588184213573 9.265562546049471 0.46857623463848996 0 0 0
138 1 1 0.6366197723675814 1.163516059082734 8.6482698459925 0.03557766170776037 0 0 0
429 1 1 0.6366197723675814 2.510910458558157 8.86175719043905 0.5019138231424541 0 0 0
144 1 1 0.6366197723675814 7.551447642591273 9.074840103341273 0.33016357971695215 0 0 0
145 1 1 0.6366197723675814 8.728131637704617 9.210232941475963 0.1685874904180551 0 0 0
146 1 1 0.6366197723675814 9.802524176944749 8.717151173031775 0.03969493972392016 0 0 0
148 1 1 0.6366197723675814 12.178033623745268 9.284003426685697 0.36771596271586887 0 0 0
151 1 1 0.6366197723675814 15.309617942101749 9.155973634178366 0.24967997886208385 0 0 0
153 1 1 0.6366197723675814 17.999165806944493 8.920074292682585 0.18260748827538592 0 0 0
139 1 1 0.6366197723675814 1.754705831397536 9.753931616695787 0.43130233263526907 0 0 0
158 1 1 0.6366197723675814 4.22855132672499 9.69211575254718 0.309289351652932 0 0 0
159 1 1 0.6366197723675814 5.6324882857161045 9.340322065760624 0.3117228656263293 0 0 0
164 1 1 0.6366197723675814 10.628097141806117 9.514532295498517 0.46778108130274904 0 0 0
456 1 1 0.6366197723675814 13.18361578637259 9.72697247798311 0.6641399402326145 0 0 0
169 1 1 0.6366197723675814 16.425064789137952 9.835302645218626 0.48623675190154453 0 0 0
443 1 1 0.6366197723675814 0.10388801822291004 10.293536077569705 0.8077433420803221 0 0 0
156 1 1 0.6366197723675814 2.7979053318088516 10.416897799749638 0.23079432025448973 0 0 0
175 1 1 0.6366197723675814 3.8662355266072472 10.743923351175436 0.2544976480804423 0 0 0
176 1 1 0.6366197723675814 5.081802977808449 10.572936115765822 0.0838363344782413 0 0 0
162 1 1 0.6366197723675814 8.765137700699567 10.525801934979157 0.6866634770792571 0 0 0
184 1 1 0.6366197723675814 14.338053951374418 10.71296263238284 0.3242225534405332 0 0 0
178 1 1 0.6366197723675814 7.7303290137386895 11.168052849380647 0.15217063157148208 0 0 0
180 1 1 0.6366197723675814 9.81722093836347 11.137072393190323 0.22082794046693532 0 0 0
182 1 1 0.6366197723675814 11.90176988506807 11.223546538950826 0.6717111772360377 0 0 0
183 1 1 0.6366197723675814 12.895885546517501 11.402114250369616 0.1126580173736542 0 0 0
185 1 1 0.6366197723675814 15.59131027526703 11.141454643394033 0.39378468152238627 0 0 0
186 1 1 0.6366197723675814 16.637711635579794 10.875852186499687 0.16362821057638227 0 0 0
187 1 1 0.6366197723675814 18.032986498532765 10.971262854643095 0.18000258107307052 0 0 0
174 1 1 0.6366197723675814 3.362603676460123 11.836648250792718 0.34512665528308195 0 0 0
193 1 1 0.6366197723675814 5.585767713913498 11.68461434476917 0.03487698195893601 0 0 0
468 1 1 0.6366197723675814 8.71432369099439 11.937701587636772 0.7243694300205543 0 0 0
198 1 1 0.6366197723675814 10.88108841252537 11.624014905011817 0.002439676389953082 0 0 0
199 1 1 0.6366197723675814 11.937332840049672 12.172346231825793 0.06794405172270265 0 0 0
201 1 1 0.6366197723675814 13.96950371126756 11.746885128254663 18.63671320601385 0 0 -1
493 1 1 0.6366197723675814 17.988619203239747 12.36980622450136 0.7415869641528202 0 0 0
477 1 1 0.6366197723675814 0.4235436479889834 12.61293734008217 0.3701928213802035 0 0 0
190 1 1 0.6366197723675814 2.478842422117588 12.742264964952609 0.2870838974056851 0 0 0
498 1 1 0.6366197723675814 4.314676092313466 12.575147612104056 0.5529287020627205 0 0 0
197 1 1 0.6366197723675814 10.120092210959683 12.191972877186357 0.6312124861923399 0 0 0
215 1 1 0.6366197723675814 11.018938869961612 12.775493595853655 0.06715135387194676 0 0 0
218 1 1 0.6366197723675814 14.027116560001046 12.823237131767813 0.22217286651757306 0 0 0
508 1 1 0.6366197723675814 15.16795960308784 12.64088758009642 0.717132980174223 0 0 0
221 1 1 0.6366197723675814 17.204607642345778 12.85206016321006 0.22831450554727797 0 0 0
210 1 1 0.6366197723675814 4.847220426532038 13.54240492708864 0.11789732727886722 0 0 0
501 1 1 0.6366197723675814 7.734310753015561 13.23011624763104 0.6880327711231026 0 0 0
213 1 1 0.6366197723675814 8.938382567470311 13.25676564100191 0.39650157007170883 0 0 0
216 1 1 0.6366197723675814 12.254655628373142 13.293952441674534 0.4840351646097753 0 0 0
506 1 1 0.6366197723675814 13.350550436715235 13.692359449748567 0.6729867247523058 0 0 0
205 1 1 0.6366197723675814 18.52587118710921 13.487264615054134 0.534735473273306 -1 0 0
209 1 1 0.6366197723675814 3.8001187713836697 13.908872578470119 0.2877153158941662 0 0 0
516 1 1 0.6366197723675814 5.865519114804132 14.120851655586053 0.5722739859194925 0 0 0
230 1 1 0.6366197723675814 7.869247263658183 14.15608465634345 0.012458254924364347 0 0 0
231 1 1 0.6366197723675814 10.229942198280087 14.329713857159959 0.17804657292280063 0 0 0
521 1 1 0.6366197723675814 11.207307144953184 13.915437829257963 0.4859557497841741 0 0 0
526 1 1 0.6366197723675814 16.80163706453347 13.959580898163988 0.6145661759454775 0 0 0
222 1 1 0.6366197723675814 0.2041098938204691 14.55711034760676 0.37450400002263634 0 0 0
513 1 1 0.6366197723675814 1.5858341558193392 14.944085665180047 0.5760356744638755 0 0 0
225 1 1 0.6366197723675814 3.042081455206863 14.74381203475466 0.4420696745787516 0 0 0
519 1 1 0.6366197723675814 9.021739640831866 14.398217928502227 0.4004665758824717 0 0 0
234 1 1 0.6366197723675814 13.577109974096997 14.72880647007522 0.2468878865374194 0 0 0
524 1 1 0.6366197723675814 14.699184107560201 14.720886363227624 0.6750325877347414 0 0 0
533 1 1 0.6366197723675814 5.136457252451619 15.046854188350698 0.6975298982494323 0 0 0
245 1 1 0.6366197723675814 6.306632639893275 15.250307722196384 0.4682594945530545 0 0 0
538 1 1 0.6366197723675814 10.497223959789304 15.602388070091196 0.3401880066514829 0 0 0
250 1 1 0.6366197723675814 12.48810718418866 15.281925852007245 0.021797529468032612 0 0 0
253 1 1 0.6366197723675814 15.60650641351045 15.414270300859414 0.03916582585126811 0 0 0
544 1 1 0.6366197723675814 17.044889402415418 15.080009970518686 0.6513100054968688 0 0 0
272 1 1 0.6366197723675814 17.956968028883235 15.799280034973787 0.30538023702104783 0 0 0
257 1 1 0.6366197723675814 1.4419531342624683 16.607660295555572 0.2562606099006867 0 0 0
242 1 1 0.6366197723675814 3.4038423391107333 15.821759370476782 0.40702187296259823 0 0 0
262 1 1 0.6366197723675814 6.747154381253359 16.25681059661424 0.13369847925534592 0 0 0
246 1 1 0.6366197723675814 7.797071365093005 16.045832943845042 0.47939291493435293 0 0 0
556 1 1 0.6366197723675814 12.095881837760102 16.271075767494477 0.6326325127483532 0 0 0
269 1 1 0.6366197723675814 14.524792372434886 15.867872593001609 0.42855137375433605 0 0 0
560 1 1 0.6366197723675814 16.378302129293107 15.97109366501777 0.5575066067780341 0 0 0
256 1 1 0.6366197723675814 0.15634005441597337 16.752607650072175 0.451314343634869 0 0 0
258 1 1 0.6366197723675814 2.5385384538345157 16.53444931840088 0.4642545155370409 0 0 0
549 1 1 0.6366197723675814 4.189240653164138 17.007680771731135 0.5888857423954387 0 0 0
261 1 1 0.6366197723675814 5.343944959544163 16.765355768527254 0.23388814709010683 0 0 0
553 1 1 0.6366197723675814 8.911831287762253 16.681562680200113 0.5890076610116409 0 0 0
265 1 1 0.6366197723675814 9.99521812430752 16.896940414329475 0.27075300332237784 0 0 0
268 1 1 0.6366197723675814 13.143708943616057 16.703679754832848 0.5743992132730715 0 0 0
286 1 1 0.6366197723675814 14.403677030477972 16.98624984088804 0.2915248148778272 0 0 0
563 1 1 0.6366197723675814 1.7648072618040473 17.56962418127063 0.6864697088153374 0 0 0
566 1 1 0.6366197723675814 4.88925863707646 17.95249486451132 0.5135525261733037 0 0 0
279 1 1 0.6366197723675814 6.951352980943411 17.99820534922814 0.24212813145163414 0 0 0
572 1 1 0.6366197723675814 10.465420621870464 17.808052648772996 0.7369164079917974 0 0 0
284 1 1 0.6366197723675814 11.886447400838104 17.443858684607015 0.17705111342057359 0 0 0
576 1 1 0.6366197723675814 15.370534767369643 17.567459222468752 0.4460623555847034 0 0 0
289 1 1 0.6366197723675814 17.530197479312523 17.691829396064136 0.4834712541192134 0 0 0
274 1 1 0.6366197723675814 0.8673226131860308 18.084186730377862 0.3190398539917771 0 0 0
276 1 1 0.6366197723675814 3.5712342647478956 18.191393937232114 0.19924284858469404 0 0 0
8 1 1 0.6366197723675814 7.9480640990998 18.56965206603164 0.1726582610091524 0 -1 0
9 1 1 0.6366197723675814 9.11103060681156 0.04753724883739133 0.3323716929268118 0 0 0
13 1 1 0.6366197723675814 13.329031032250823 18.63798188568921 0.14281021313268663 0 -1 0
14 1 1 0.6366197723675814 14.341234829837502 18.14143924268047 0.0031789916567747933 0 -1 0
15 1 1 0.6366197723675814 15.856264352368914 18.569585418139013 0.41771511455899374 0 -1 0
290 1 1 0.6366197723675814 0.3572066953759406 0.0950845916500249 0.929020342114334 0 0 0
293 1 1 0.6366197723675814 3.5780817543562544 0.36927455321013347 0.9002284443203156 0 0 0
295 1 1 0.6366197723675814 5.43322550727754 0.04099154482441347 1.1097731607666603 0 0 0
300 1 1 0.6366197723675814 10.761792858853271 0.28102630557617886 1.0947141218153724 0 0 0
302 1 1 0.6366197723675814 12.916237272855582 0.2789335303564658 1.1246285660192699 0 0 0
303 1 1 0.6366197723675814 14.11347196214081 0.32043020481819817 1.0454441473751637 0 0 0
321 1 1 0.6366197723675814 15.221763680414599 0.5948184168724265 1.1800584582839238 0 0 0
311 1 1 0.6366197723675814 4.560675878681229 0.7457964504205822 1.4571620806922034 0 0 0
312 1 1 0.6366197723675814 6.027549444900984 1.169833613843823 1.2244042481452129 0 0 0
313 1 1 0.6366197723675814 7.1723160076636505 1.0920460002490557 1.2754332351716038 0 0 0
314 1 1 0.6366197723675814 8.201515502422914 0.7544991048633406 0.8468651944455327 0 0 0
320 1 1 0.6366197723675814 14.454608776793073 1.4493058126230791 1.0935004799028478 0 0 0
322 1 1 0.6366197723675814 16.373349218815758 0.7601898107205035 1.0582343839794706 0 0 0
307 1 1 0.6366197723675814 18.532900556461176 1.1089680458391196 1.1606904661198212 -1 0 0
309 1 1 0.6366197723675814 1.961909776421691 1.682473059738772 1.4907203157301032 0 0 0
21 1 1 0.6366197723675814 2.855858947971097 1.5102229964658151 0.8333913392218405 0 0 0
328 1 1 0.6366197723675814 4.965099350983464 1.8975862122824967 1.2591231766066495 0 0 0
332 1 1 0.6366197723675814 9.293315815009246 2.013136929605748 0.9709173257583243 0 0 0
334 1 1 0.6366197723675814 11.347704565114697 1.8563058588695995 0.7446382277217204 0 0 0
335 1 1 0.6366197723675814 12.835809958841244 1.9813301908388947 0.8817884669261846 0 0 0
339 1 1 0.6366197723675814 16.895075934703165 1.8646439012192815 0.8352017146353174 0 0 0
340 1 1 0.6366197723675814 18.0518100404573 2.046719522760516 0.7398114424231576 0 0 0
324 1 1 0.6366197723675814 0.2142648074274772 2.4283173707908174 1.3086663852072722 0 0 0
342 1 1 0.6366197723675814 1.3080940386774964 2.7216134870847775 0.8806042743797038 0 0 0
326 1 1 0.6366197723675814 2.6064847447843147 2.6318810779418005 1.1411937220277528 0 0 0
327 1 1 0.6366197723675814 3.8517194383212967 2.229655968887546 1.0409343793723238 0 0 0
329 1 1 0.6366197723675814 5.9198268379445595 2.251779493750284 0.8175610739905033 0 0 0
620 1 1 0.6366197723675814 7.40164173468762 2.748508833837469 1.495240563272511 0 0 0
349 1 1 0.6366197723675814 8.526391706979735 2.8465247598344963 1.2675690816272973 0 0 0
333 1 1 0.6366197723675814 10.284664484581317 2.363362618841733 1.0152163612390157 0 0 0
355 1 1 0.6366197723675814 15.822707004052644 2.7872014053752654 1.2538365217202798 0 0 0
356 1 1 0.6366197723675814 16.959029684239518 2.8535767886828958 1.3733244338536104 0 0 0
344 1 1 0.6366197723675814 3.409875896767802 3.4162164611785863 1.3957022771181495 0 0 0
346 1 1 0.6366197723675814 4.770326361098548 3.028004191210599 1.243671197392302 0 0 0
347 1 1 0.6366197723675814 6.542357643165199 3.3338925331736626 0.8210324138651894 0 0 0
350 1 1 0.6366197723675814 9.524729070986721 3.312749134967838 0.9486739599502405 0 0 0
351 1 1 0.6366197723675814 11.287404485005013 2.958249545062254 0.9782521538513999 0 0 0
353 1 1 0.6366197723675814 13.299290356996186 3.1580191868339806 0.8432381313306243 0 0 0
357 1 1 0.6366197723675814 18.021475572521208 3.090871887957819 1.0914666827885018 0 0 0
341 1 1 0.6366197723675814 0.5106327586202667 3.626381996542861 1.2248215851457418 0 0 0
361 1 1 0.6366197723675814 2.9621695522042883 4.260549254668444 0.8754932651643081 0 0 0
362 1 1 0.6366197723675814 4.383080976651848 4.196729743742851 1.2260449934720705 0 0 0
348 1 1 0.6366197723675814 7.601977052854973 3.935169255748057 1.241905262460848 0 0 0
366 1 1 0.6366197723675814 8.634386566511047 4.183126943197874 0.8550491191328029 0 0 0
354 1 1 0.6366197723675814 14.233272287187566 3.6409726518336503 1.1336364764832214 0 0 0
644 1 1 0.6366197723675814 15.335445786164835 3.711849920962896 1.465419031132086 0 0 0
374 1 1 0.6366197723675814 17.30395909157638 3.9890076591728016 1.094581227676125 0 0 0
359 1 1 0.6366197723675814 1.4068074926550214 4.311927247042408 1.22882829344658 0 0 0
365 1 1 0.6366197723675814 7.322037652179187 4.862852993559352 0.76488170686448 0 0 0
367 1 1 0.6366197723675814 9.707031418662448 4.374596015680927 1.376674694400944 0 0 0
370 1 1 0.6366197723675814 12.900286451951285 4.50974242212732 1.0877967934545376 0 0 0
371 1 1 0.6366197723675814 13.984859521097722 4.8093194460031 1.4076311782826847 0 0 0
373 1 1 0.6366197723675814 16.119580196026117 4.6739132843645 1.1818285018770398 0 0 0
358 1 1 0.6366197723675814 0.5009428675714008 4.962272027342446 1.1943966487533775 0 0 0
376 1 1 0.6366197723675814 1.461766881568011 5.526871880398161 0.8071738687594643 0 0 0
360 1 1 0.6366197723675814 2.2769106199295326 4.969270255468171 1.30664340062457 0 0 0
379 1 1 0.6366197723675814 4.378744108044057 5.314270383822833 1.4543369780492317 0 0 0
380 1 1 0.6366197723675814 5.271051026766862 5.147829352848299 0.6825549435855487 0 0 0
381 1 1 0.6366197723675814 6.2807183865615 5.422040582181475 1.0873629688153472 0 0 0
383 1 1 0.6366197723675814 8.258802462789694 5.096611270396306 1.3947836056963965 0 0 0
385 1 1 0.6366197723675814 11.124282536460615 5.086020619767564 1.1688745105770992 0 0 0
386 1 1 0.6366197723675814 12.252316787675744 5.565650162955754 0.8141698791326494 0 0 0
389 1 1 0.6366197723675814 15.261466751952195 5.610125063982699 0.68948963462395 0 0 0
101 1 1 0.6366197723675814 16.892378326422506 5.350639271298356 0.6965796333215095 0 0 0
391 1 1 0.6366197723675814 17.82981211234025 5.108874798719001 1.3308547633613232 0 0 0
104 1 1 0.6366197723675814 0.6372334553303843 6.3290021279039275 0.7919181984780499 0 0 0
377 1 1 0.6366197723675814 2.394806476693661 6.1682978692861905 1.052102591668078 0 0 0
382 1 1 0.6366197723675814 7.766016883112137 6.083291465074137 1.3759739411717056 0 0 0
400 1 1 0.6366197723675814 8.812472223620457 6.189015321835266 1.0755288950799642 0 0 0
388 1 1 0.6366197723675814 14.125556448452764 5.963545183432718 1.1628866090226833 0 0 0
407 1 1 0.6366197723675814 17.06235514088816 6.43602926278451 1.044007289638999 0 0 0
408 1 1 0.6366197723675814 18.19486909312313 6.0697173883011235 0.8521207151901126 0 0 0
392 1 1 0.6366197723675814 0.11020267319736372 7.263464850493938 1.2215020400739547 0 0 0
395 1 1 0.6366197723675814 3.4008379994115803 6.727111863846879 1.3365019876443396 0 0 0
396 1 1 0.6366197723675814 4.475708904467725 6.549539076400541 1.0774677344743775 0 0 0
397 1 1 0.6366197723675814 5.491884899703988 7.11386877208525 0.9491749297199126 0 0 0
398 1 1 0.6366197723675814 6.74120690269023 6.939919223964192 0.7951327326866559 0 0 0
399 1 1 0.6366197723675814 7.840760068109192 7.209314654894006 1.092714433907985 0 0 0
401 1 1 0.6366197723675814 9.89520708153068 6.645854804660965 1.2663401262231864 0 0 0
402 1 1 0.6366197723675814 11.238966100392714 6.629627512124742 1.2213750696340548 0 0 0
410 1 1 0.6366197723675814 1.2754087252291526 7.562519208872991 1.1178132021457514 0 0 0
394 1 1 0.6366197723675814 2.406919178550801 7.240042148706684 1.2956700604442382 0 0 0
413 1 1 0.6366197723675814 4.249108046686378 7.640145250573432 0.755632351145707 0 0 0
417 1 1 0.6366197723675814 8.906718632491115 7.371081785201372 1.1435391540265136 0 0 0
130 1 1 0.6366197723675814 10.82487885068261 7.607149049843686 0.8879219235702028 0 0 0
420 1 1 0.6366197723675814 11.846854880933794 7.851733990117682 1.2797134126277423 0 0 0
421 1 1 0.6366197723675814 12.923907804139278 7.551463374113659 0.7089267457030035 0 0 0
423 1 1 0.6366197723675814 15.204673374526147 7.687287421482024 0.9288327868969355 0 0 0
424 1 1 0.6366197723675814 16.87594199994213 7.6078151674409655 0.8475239809461111 0 0 0
409 1 1 0.6366197723675814 0.4246039006264888 8.203578546004382 0.8990457987770416 0 0 0
412 1 1 0.6366197723675814 3.075248095458103 8.159869423316398 1.2817566920063326 0 0 0
415 1 1 0.6366197723675814 6.021549487782489 8.113383021778315 0.8554325792513964 0 0 0
705 1 1 0.6366197723675814 7.134542505243851 8.084824062027847 1.1095324510083524 0 0 0
434 1 1 0.6366197723675814 8.593476488404862 8.444206592511742 1.0176800053910233 0 0 0
418 1 1 0.6366197723675814 9.817257015308329 8.067515170664839 1.0938632935221375 0 0 0
438 1 1 0.6366197723675814 13.030070117736866 8.659725485535919 0.9312463808362278 0 0 0
422 1 1 0.6366197723675814 13.970755857280635 7.938880512062002 1.3385839654727123 0 0 0
425 1 1 0.6366197723675814 18.033297671185068 8.21472016979393 1.0213936807930062 0 0 0
427 1 1 0.6366197723675814 1.454602559778764 8.74616580733904 1.11441826471823 0 0 0
141 1 1 0.6366197723675814 3.899563251301393 8.794823282219902 0.8779130213442233 0 0 0
431 1 1 0.6366197723675814 5.611834556893916 9.129296181270043 1.4275828765314797 0 0 0
432 1 1 0.6366197723675814 6.673382618014033 9.225122107699281 1.036634459798286 0 0 0
435 1 1 0.6366197723675814 9.797780463583935 9.210189876356855 1.0738006410763383 0 0 0
436 1 1 0.6366197723675814 10.768051821637721 8.684448576716322 1.2174414936295783 0 0 0
437 1 1 0.6366197723675814 11.903108903122224 8.955899590401382 1.4281263411993894 0 0 0
440 1 1 0.6366197723675814 14.834577850995998 8.693533079670225 1.2953957356051544 0 0 0
441 1 1 0.6366197723675814 15.983244270970879 8.76734823974454 1.0433471079335117 0 0 0
730 1 1 0.6366197723675814 16.998791160476458 9.149893900613984 1.2857545410392779 0 0 0
444 1 1 0.6366197723675814 1.0291239921036377 9.781703543582982 1.335591750853787 0 0 0
446 1 1 0.6366197723675814 3.2383189216045234 9.728213233535074 0.9878531465319607 0 0 0
448 1 1 0.6366197723675814 4.90609293650038 10.03579567757551 1.1209060392163557 0 0 0
457 1 1 0.6366197723675814 14.602816414493297 9.74485862764356 0.8762020978500046 0 0 0
458 1 1 0.6366197723675814 15.618324760435948 9.786196606952457 1.322300410462295 0 0 0
442 1 1 0.6366197723675814 18.078436956794196 9.52087934616135 1.1465669487905583 0 0 0
461 1 1 0.6366197723675814 1.2098272844456943 10.76058561965524 0.9102873584763607 0 0 0
449 1 1 0.6366197723675814 6.215200353633372 10.207806732488283 1.1028530824387883 0 0 0
450 1 1 0.6366197723675814 7.363543572544988 10.086330202090064 0.7647999658264966 0 0 0
452 1 1 0.6366197723675814 9.758181598139073 10.345034868749158 1.0363591951964646 0 0 0
454 1 1 0.6366197723675814 11.762194382191616 10.139250455960928 0.984277566806019 0 0 0
471 1 1 0.6366197723675814 12.619670043526268 10.770304953167214 1.380213177697715 0 0 0
474 1 1 0.6366197723675814 14.88681736625833 10.67701119721607 1.4143804622682008 0 0 0
475 1 1 0.6366197723675814 16.332468538827385 10.840505973924857 1.276357788115195 0 0 0
459 1 1 0.6366197723675814 17.323834249175704 10.326003724818783 1.1079323041278886 0 0 0
460 1 1 0.6366197723675814 0.17813428404446838 11.413544166957843 0.78716435821935 0 0 0
462 1 1 0.6366197723675814 2.3505035924750923 11.304022984615008 0.7755846830050195 0 0 0
463 1 1 0.6366197723675814 3.2913781955044983 10.831581542240295 1.2178199044864764 0 0 0
464 1 1 0.6366197723675814 4.485195330070961 11.03499828463142 1.1530701902369462 0 0 0
465 1 1 0.6366197723675814 5.640867482340602 11.180084910130883 1.0401183119784858 0 0 0
466 1 1 0.6366197723675814 6.780107764832688 11.12284683618821 0.8594103258898664 0 0 0
467 1 1 0.6366197723675814 8.085238428084033 11.272333387760934 1.387104268102372 0 0 0
469 1 1 0.6366197723675814 9.489063305242832 11.44095443874095 1.2834711434495103 0 0 0
181 1 1 0.6366197723675814 10.790314851398906 10.827252308177036 0.8116613112252162 0 0 0
472 1 1 0.6366197723675814 13.608430569389224 11.325935643829967 1.002247313638545 0 0 0
476 1 1 0.6366197723675814 17.70667612560491 11.365395824277469 1.2242871929750698 0 0 0
478 1 1 0.6366197723675814 1.2735173413686962 11.901708958666012 0.8776047588165208 0 0 0
480 1 1 0.6366197723675814 3.7312231094112267 11.902895118777629 1.4158954777400203 0 0 0
481 1 1 0.6366197723675814 4.866387681765441 12.034066976374104 1.3106902276736019 0 0 0
482 1 1 0.6366197723675814 6.263058186517242 12.112451610694169 1.0290917232127987 0 0 0
483 1 1 0.6366197723675814 7.3745185584552075 12.07745735687206 0.7548868046026237 0 0 0
487 1 1 0.6366197723675814 10.84689733734353 11.820133797015702 1.3529614841551387 0 0 0
490 1 1 0.6366197723675814 14.700971014864779 11.625270424879213 0.8571019033151333 0 0 0
491 1 1 0.6366197723675814 15.898788131186672 11.930382075990853 1.2899211060455216 0 0 0
492 1 1 0.6366197723675814 16.842107426701393 11.899468172830073 0.7212900160198062 0 0 0
495 1 1 0.6366197723675814 1.5576359708420837 13.015273413155908 0.8142876209299017 0 0 0
479 1 1 0.6366197723675814 2.2610456148106906 12.33132981064574 1.3689834113855837 0 0 0
488 1 1 0.6366197723675814 11.583886611331437 12.588137823736497 1.0450607690285345 0 0 0
200 1 1 0.6366197723675814 12.793097870536181 12.326090814994838 0.8308486457266109 0 0 0
489 1 1 0.6366197723675814 14.048654302827355 12.488984319596751 1.382341999320081 0 0 0
509 1 1 0.6366197723675814 16.529468259519216 12.905442949166865 1.1401166913775156 0 0 0
494 1 1 0.6366197723675814 0.44898654225364937 13.073106399452813 1.385365381131952 0 0 0
497 1 1 0.6366197723675814 3.3076206253476066 12.949480235817376 1.014671354868849 0 0 0
499 1 1 0.6366197723675814 5.3703293645777554 12.984312125934439 0.9383093555293393 0 0 0
500 1 1 0.6366197723675814 6.607594668095944 13.250068210028713 0.9063389072889304 0 0 0
502 1 1 0.6366197723675814 8.694974333248483 13.607361128349156 1.3189079038355707 0 0 0