ITEM: TIMESTEP
0
ITEM: NUMBER OF ATOMS
4913
ITEM: BOX BOUNDS pp pp pp
0.0000000000000000e+00 1.8710921077069550e+01
0.0000000000000000e+00 1.8710921077069550e+01
0.0000000000000000e+00 1.8710921077069550e+01
ITEM: ATOMS id type xs ys zs
1 1 0 0 0
2 1 0.0588235 0 0
3 1 0.117647 0 0
4 1 0.176471 0 0
5 1 0.235294 0 0
6 1 0.294118 0 0
7 1 0.352941 0 0
8 1 0.411765 0 0
9 1 0.470588 0 0
10 1 0.529412 0 0
11 1 0.588235 0 0
12 1 0.647059 0 0
13 1 0.705882 0 0
14 1 0.764706 0 0
15 1 0.823529 0 0
16 1 0.882353 0 0
17 1 0.941176 0 0
18 1 0 0.0588235 0
19 1 0.0588235 0.0588235 0
20 1 0.117647 0.0588235 0
21 1 0.176471 0.0588235 0
22 1 0.235294 0.0588235 0
23 1 0.294118 0.0588235 0
24 1 0.352941 0.0588235 0
25 1 0.411765 0.0588235 0
26 1 0.470588 0.0588235 0
27 1 0.529412 0.0588235 0
28 1 0.588235 0.0588235 0
29 1 0.647059 0.0588235 0
30 1 0.705882 0.0588235 0
31 1 0.764706 0.0588235 0
32 1 0.823529 0.0588235 0
33 1 0.882353 0.0588235 0
34 1 0.941176 0.0588235 0
35 1 0 0.117647 0
36 1 0.0588235 0.117647 0
37 1 0.117647 0.117647 0
38 1 0.176471 0.117647 0
39 1 0.235294 0.117647 0
40 1 0.294118 0.117647 0
41 1 0.352941 0.117647 0
42 1 0.411765 0.117647 0
43 1 0.470588 0.117647 0
44 1 0.529412 0.117647 0
45 1 0.588235 0.117647 0
46 1 0.647059 0.117647 0
47 1 0.705882 0.117647 0
48 1 0.764706 0.117647 0
49 1 0.823529 0.117647 0
50 1 0.882353 0.117647 0
51 1 0.941176 0.117647 0
52 1 0 0.176471 0
53 1 0.0588235 0.176471 0
54 1 0.117647 0.176471 0
55 1 0.176471 0.176471 0
56 1 0.235294 0.176471 0
57 1 0.294118 0.176471 0
58 1 0.352941 0.176471 0
59 1 0.411765 0.176471 0
60 1 0.470588 0.176471 0
61 1 0.529412 0.176471 0
62 1 0.588235 0.176471 0
63 1 0.647059 0.176471 0
64 1 0.705882 0.176471 0
65 1 0.764706 0.176471 0
66 1 0.823529 0.176471 0
67 1 0.882353 0.176471 0
68 1 0.941176 0.176471 0
69 1 0 0.235294 0
70 1 0.0588235 0.235294 0
71 1 0.117647 0.235294 0
72 1 0.176471 0.235294 0
73 1 0.235294 0.235294 0
74 1 0.294118 0.235294 0
75 1 0.352941 0.235294 0
76 1 0.411765 0.235294 0
77 1 0.470588 0.235294 0
78 1 0.529412 0.235294 0
79 1 0.588235 0.235294 0
80 1 0.647059 0.235294 0
81 1 0.705882 0.235294 0
82 1 0.764706 0.235294 0
83 1 0.823529 0.235294 0
84 1 0.882353 0.235294 0
85 1 0.941176 0.235294 0
86 1 0 0.294118 0
87 1 0.0588235 0.294118 0
88 1 0.117647 0.294118 0
89 1 0.176471 0.294118 0
90 1 0.235294 0.294118 0
91 1 0.294118 0.294118 0
92 1 0.352941 0.294118 0
93 1 0.411765 0.294118 0
94 1 0.470588 0.294118 0
95 1 0.529412 0.294118 0
96 1 0.588235 0.294118 0
97 1 0.647059 0.294118 0
98 1 0.705882 0.294118 0
99 1 0.764706 0.294118 0
100 1 0.823529 0.294118 0
101 1 0.882353 0.294118 0
102 1 0.941176 0.294118 0
103 1 0 0.352941 0
104 1 0.0588235 0.352941 0
105 1 0.117647 0.352941 0
106 1 0.176471 0.352941 0
107 1 0.235294 0.352941 0
108 1 0.294118 0.352941 0
109 1 0.352941 0.352941 0
110 1 0.411765 0.352941 0
111 1 0.470588 0.352941 0
112 1 0.529412 0.352941 0
113 1 0.588235 0.352941 0
114 1 0.647059 0.352941 0
115 1 0.705882 0.352941 0
116 1 0.764706 0.352941 0
117 1 0.823529 0.352941 0
118 1 0.882353 0.352941 0
119 1 0.941176 0.352941 0
120 1 0 0.411765 0
121 1 0.0588235 0.411765 0
122 1 0.117647 0.411765 0
123 1 0.176471 0.411765 0
124 1 0.235294 0.411765 0
125 1 0.294118 0.411765 0
126 1 0.352941 0.411765 0
127 1 0.411765 0.411765 0
128 1 0.470588 0.411765 0
129 1 0.529412 0.411765 0
130 1 0.588235 0.411765 0
131 1 0.647059 0.411765 0
132 1 0.705882 0.411765 0
133 1 0.764706 0.411765 0
134 1 0.823529 0.411765 0
135 1 0.882353 0.411765 0
136 1 0.941176 0.411765 0
137 1 0 0.470588 0
138 1 0.0588235 0.470588 0
139 1 0.117647 0.470588 0
140 1 0.176471 0.470588 0
141 1 0.235294 0.470588 0
142 1 0.294118 0.470588 0
143 1 0.352941 0.470588 0
144 1 0.411765 0.470588 0
145 1 0.470588 0.470588 0
146 1 0.529412 0.470588 0
147 1 0.588235 0.470588 0
148 1 0.647059 0.470588 0
149 1 0.705882 0.470588 0
150 1 0.764706 0.470588 0
151 1 0.823529 0.470588 0
152 1 0.882353 0.470588 0
153 1 0.941176 0.470588 0
154 1 0 0.529412 0
155 1 0.0588235 0.529412 0
156 1 0.117647 0.529412 0
157 1 0.176471 0.529412 0
158 1 0.235294 0.529412 0
159 1 0.294118 0.529412 0
160 1 0.352941 0.529412 0
161 1 0.411765 0.529412 0
162 1 0.470588 0.529412 0
163 1 0.529412 0.529412 0
164 1 0.588235 0.529412 0
165 1 0.647059 0.529412 0
166 1 0.705882 0.529412 0
167 1 0.764706 0.529412 0
168 1 0.823529 0.529412 0
169 1 0.882353 0.529412 0
170 1 0.941176 0.529412 0
171 1 0 0.588235 0
172 1 0.0588235 0.588235 0
173 1 0.117647 0.588235 0
174 1 0.176471 0.588235 0
175 1 0.235294 0.588235 0
176 1 0.294118 0.588235 0
177 1 0.352941 0.588235 0
178 1 0.411765 0.588235 0
179 1 0.470588 0.588235 0
180 1 0.529412 0.588235 0
181 1 0.588235 0.588235 0
182 1 0.647059 0.588235 0
183 1 0.705882 0.588235 0
184 1 0.764706 0.588235 0
185 1 0.823529 0.588235 0
186 1 0.882353 0.588235 0
187 1 0.941176 0.588235 0
188 1 0 0.647059 0
189 1 0.0588235 0.647059 0
190 1 0.117647 0.647059 0
191 1 0.176471 0.647059 0
192 1 0.235294 0.647059 0
193 1 0.294118 0.647059 0
194 1 0.352941 0.647059 0
195 1 0.411765 0.647059 0
196 1 0.470588 0.647059 0
197 1 0.529412 0.647059 0
198 1 0.588235 0.647059 0
199 1 0.647059 0.647059 0
200 1 0.705882 0.647059 0
201 1 0.764706 0.647059 0
202 1 0.823529 0.647059 0
203 1 0.882353 0.647059 0
204 1 0.941176 0.647059 0
205 1 0 0.705882 0
206 1 0.0588235 0.705882 0
207 1 0.117647 0.705882 0
208 1 0.176471 0.705882 0
209 1 0.235294 0.705882 0
210 1 0.294118 0.705882 0
211 1 0.352941 0.705882 0
212 1 0.411765 0.705882 0
213 1 0.470588 0.705882 0
214 1 0.529412 0.705882 0
215 1 0.588235 0.705882 0
216 1 0.647059 0.705882 0
217 1 0.705882 0.705882 0
218 1 0.764706 0.705882 0
219 1 0.823529 0.705882 0
220 1 0.882353 0.705882 0
221 1 0.941176 0.705882 0
222 1 0 0.764706 0
223 1 0.0588235 0.764706 0
224 1 0.117647 0.764706 0
225 1 0.176471 0.764706 0
226 1 0.235294 0.764706 0
227 1 0.294118 0.764706 0
228 1 0.352941 0.764706 0
229 1 0.411765 0.764706 0
230 1 0.470588 0.764706 0
231 1 0.529412 0.764706 0
232 1 0.588235 0.764706 0
233 1 0.647059 0.764706 0
234 1 0.705882 0.764706 0
235 1 0.764706 0.764706 0
236 1 0.823529 0.764706 0
237 1 0.882353 0.764706 0
238 1 0.941176 0.764706 0
239 1 0 0.823529 0
240 1 0.0588235 0.823529 0
241 1 0.117647 0.823529 0
242 1 0.176471 0.823529 0
243 1 0.235294 0.823529 0
244 1 0.294118 0.823529 0
245 1 0.352941 0.823529 0
246 1 0.411765 0.823529 0
247 1 0.470588 0.823529 0
248 1 0.529412 0.823529 0
249 1 0.588235 0.823529 0
250 1 0.647059 0.823529 0
251 1 0.705882 0.823529 0
252 1 0.764706 0.823529 0
253 1 0.823529 0.823529 0
254 1 0.882353 0.823529 0
255 1 0.941176 0.823529 0
256 1 0 0.882353 0
257 1 0.0588235 0.882353 0
258 1 0.117647 0.882353 0
259 1 0.176471 0.882353 0
260 1 0.235294 0.882353 0
261 1 0.294118 0.882353 0
262 1 0.352941 0.882353 0
263 1 0.411765 0.882353 0
264 1 0.470588 0.882353 0
265 1 0.529412 0.882353 0
266 1 0.588235 0.882353 0
267 1 0.647059 0.882353 0
268 1 0.705882 0.882353 0
269 1 0.764706 0.882353 0
270 1 0.823529 0.882353 0
271 1 0.882353 0.882353 0
272 1 0.941176 0.882353 0
273 1 0 0.941176 0
274 1 0.0588235 0.941176 0
275 1 0.117647 0.941176 0
276 1 0.176471 0.941176 0
277 1 0.235294 0.941176 0
278 1 0.294118 0.941176 0
279 1 0.352941 0.941176 0
280 1 0.411765 0.941176 0
281 1 0.470588 0.941176 0
282 1 0.529412 0.941176 0
283 1 0.588235 0.941176 0
284 1 0.647059 0.941176 0
285 1 0.705882 0.941176 0
286 1 0.764706 0.941176 0
287 1 0.823529 0.941176 0
288 1 0.882353 0.941176 0
289 1 0.941176 0.941176 0
290 1 0 0 0.0588235
291 1 0.0588235 0 0.0588235
292 1 0.117647 0 0.0588235
293 1 0.176471 0 0.0588235
294 1 0.235294 0 0.0588235
295 1 0.294118 0 0.0588235
296 1 0.352941 0 0.0588235
297 1 0.411765 0 0.0588235
298 1 0.470588 0 0.0588235
299 1 0.529412 0 0.0588235
300 1 0.588235 0 0.0588235
301 1 0.647059 0 0.0588235
302 1 0.705882 0 0.0588235
303 1 0.764706 0 0.0588235
304 1 0.823529 0 0.0588235
305 1 0.882353 0 0.0588235
306 1 0.941176 0 0.0588235
307 1 0 0.0588235 0.0588235
308 1 0.0588235 0.0588235 0.0588235
309 1 0.117647 0.0588235 0.0588235
310 1 0.176471 0.0588235 0.0588235
311 1 0.235294 0.0588235 0.0588235
312 1 0.294118 0.0588235 0.0588235
313 1 0.352941 0.0588235 0.0588235
314 1 0.411765 0.0588235 0.0588235
315 1 0.470588 0.0588235 0.0588235
316 1 0.529412 0.0588235 0.0588235
317 1 0.588235 0.0588235 0.0588235
318 1 0.647059 0.0588235 0.0588235
319 1 0.705882 0.0588235 0.0588235
320 1 0.764706 0.0588235 0.0588235
321 1 0.823529 0.0588235 0.0588235
322 1 0.882353 0.0588235 0.0588235
323 1 0.941176 0.0588235 0.0588235
324 1 0 0.117647 0.0588235
325 1 0.0588235 0.117647 0.0588235
326 1 0.117647 0.117647 0.0588235
327 1 0.176471 0.117647 0.0588235
328 1 0.235294 0.117647 0.0588235
329 1 0.294118 0.117647 0.0588235
330 1 0.352941 0.117647 0.0588235
331 1 0.411765 0.117647 0.0588235
332 1 0.470588 0.117647 0.0588235
333 1 0.529412 0.117647 0.0588235
334 1 0.588235 0.117647 0.0588235
335 1 0.647059 0.117647 0.0588235
336 1 0.705882 0.117647 0.0588235
337 1 0.764706 0.117647 0.0588235
338 1 0.823529 0.117647 0.0588235
339 1 0.882353 0.117647 0.0588235
340 1 0.941176 0.117647 0.0588235
341 1 0 0.176471 0.0588235
342 1 0.0588235 0.176471 0.0588235
343 1 0.117647 0.176471 0.0588235
344 1 0.176471 0.176471 0.0588235
345 1 0.235294 0.176471 0.0588235
346 1 0.294118 0.176471 0.0588235
347 1 0.352941 0.176471 0.0588235
348 1 0.411765 0.176471 0.0588235
349 1 0.470588 0.176471 0.0588235
350 1 0.529412 0.176471 0.0588235
351 1 0.588235 0.176471 0.0588235
352 1 0.647059 0.176471 0.0588235
353 1 0.705882 0.176471 0.0588235
354 1 0.764706 0.176471 0.0588235
355 1 0.823529 0.176471 0.0588235
356 1 0.882353 0.176471 0.0588235
357 1 0.941176 0.176471 0.0588235
358 1 0 0.235294 0.0588235
359 1 0.0588235 0.235294 0.0588235
360 1 0.117647 0.235294 0.0588235
361 1 0.176471 0.235294 0.0588235
362 1 0.235294 0.235294 0.0588235
363 1 0.294118 0.235294 0.0588235
364 1 0.352941 0.235294 0.0588235
365 1 0.411765 0.235294 0.0588235
366 1 0.470588 0.235294 0.0588235
367 1 0.529412 0.235294 0.0588235
368 1 0.588235 0.235294 0.0588235
369 1 0.647059 0.235294 0.0588235
370 1 0.705882 0.235294 0.0588235
371 1 0.764706 0.235294 0.0588235
372 1 0.823529 0.235294 0.0588235
373 1 0.882353 0.235294 0.0588235
374 1 0.941176 0.235294 0.0588235
375 1 0 0.294118 0.0588235
376 1 0.0588235 0.294118 0.0588235
377 1 0.117647 0.294118 0.0588235
378 1 0.176471 0.294118 0.0588235
379 1 0.235294 0.294118 0.0588235
380 1 0.294118 0.294118 0.0588235
381 1 0.352941 0.294118 0.0588235
382 1 0.411765 0.294118 0.0588235
383 1 0.470588 0.294118 0.0588235
384 1 0.529412 0.294118 0.0588235
385 1 0.588235 0.294118 0.0588235
386 1 0.647059 0.294118 0.0588235
387 1 0.705882 0.294118 0.0588235
388 1 0.764706 0.294118 0.0588235
389 1 0.823529 0.294118 0.0588235
390 1 0.882353 0.294118 0.0588235
391 1 0.941176 0.294118 0.0588235
392 1 0 0.352941 0.0588235
393 1 0.0588235 0.352941 0.0588235
394 1 0.117647 0.352941 0.0588235
395 1 0.176471 0.352941 0.0588235
396 1 0.235294 0.352941 0.0588235
397 1 0.294118 0.352941 0.0588235
398 1 0.352941 0.352941 0.0588235
399 1 0.411765 0.352941 0.0588235
400 1 0.470588 0.352941 0.0588235
401 1 0.529412 0.352941 0.0588235
402 1 0.588235 0.352941 0.0588235
403 1 0.647059 0.352941 0.0588235
404 1 0.705882 0.352941 0.0588235
405 1 0.764706 0.352941 0.0588235
406 1 0.823529 0.352941 0.0588235
407 1 0.882353 0.352941 0.0588235
408 1 0.941176 0.352941 0.0588235
409 1 0 0.411765 0.0588235
410 1 0.0588235 0.411765 0.0588235
411 1 0.117647 0.411765 0.0588235
412 1 0.176471 0.411765 0.0588235
413 1 0.235294 0.411765 0.0588235
414 1 0.294118 0.411765 0.0588235
415 1 0.352941 0.411765 0.0588235
416 1 0.411765 0.411765 0.0588235
417 1 0.470588 0.411765 0.0588235
418 1 0.529412 0.411765 0.0588235
419 1 0.588235 0.411765 0.0588235
420 1 0.647059 0.411765 0.0588235
421 1 0.705882 0.411765 0.0588235
422 1 0.764706 0.411765 0.0588235
423 1 0.823529 0.411765 0.0588235
424 1 0.882353 0.411765 0.0588235
425 1 0.941176 0.411765 0.0588235
426 1 0 0.470588 0.0588235
427 1 0.0588235 0.470588 0.0588235
428 1 0.117647 0.470588 0.0588235
429 1 0.176471 0.470588 0.0588235
430 1 0.235294 0.470588 0.0588235
431 1 0.294118 0.470588 0.0588235
432 1 0.352941 0.470588 0.0588235
433 1 0.411765 0.470588 0.0588235
434 1 0.470588 0.470588 0.0588235
435 1 0.529412 0.470588 0.0588235
436 1 0.588235 0.470588 0.0588235
437 1 0.647059 0.470588 0.0588235
438 1 0.705882 0.470588 0.0588235
439 1 0.764706 0.470588 0.0588235
440 1 0.823529 0.470588 0.0588235
441 1 0.882353 0.470588 0.0588235
442 1 0.941176 0.470588 0.0588235
443 1 0 0.529412 0.0588235
444 1 0.0588235 0.529412 0.0588235
445 1 0.117647 0.529412 0.0588235
446 1 0.176471 0.529412 0.0588235
447 1 0.235294 0.529412 0.0588235
448 1 0.294118 0.529412 0.0588235
449 1 0.352941 0.529412 0.0588235
450 1 0.411765 0.529412 0.0588235
451 1 0.470588 0.529412 0.0588235
452 1 0.529412 0.529412 0.0588235
453 1 0.588235 0.529412 0.0588235
454 1 0.647059 0.529412 0.0588235
455 1 0.705882 0.529412 0.0588235
456 1 0.764706 0.529412 0.0588235
457 1 0.823529 0.529412 0.0588235
458 1 0.882353 0.529412 0.0588235
459 1 0.941176 0.529412 0.0588235
460 1 0 0.588235 0.0588235
461 1 0.0588235 0.588235 0.0588235
462 1 0.117647 0.588235 0.0588235
463 1 0.176471 0.588235 0.0588235
464 1 0.235294 0.588235 0.0588235
465 1 0.294118 0.588235 0.0588235
466 1 0.352941 0.588235 0.0588235
467 1 0.411765 0.588235 0.0588235
468 1 0.470588 0.588235 0.0588235
469 1 0.529412 0.588235 0.0588235
470 1 0.588235 0.588235 0.0588235
471 1 0.647059 0.588235 0.0588235
472 1 0.705882 0.588235 0.0588235
473 1 0.764706 0.588235 0.0588235
474 1 0.823529 0.588235 0.0588235
475 1 0.882353 0.588235 0.0588235
476 1 0.941176 0.588235 0.0588235
477 1 0 0.647059 0.0588235
478 1 0.0588235 0.647059 0.0588235
479 1 0.117647 0.647059 0.0588235
480 1 0.176471 0.647059 0.0588235
481 1 0.235294 0.647059 0.0588235
482 1 0.294118 0.647059 0.0588235
483 1 0.352941 0.647059 0.0588235
484 1 0.411765 0.647059 0.0588235
485 1 0.470588 0.647059 0.0588235
486 1 0.529412 0.647059 0.0588235
487 1 0.588235 0.647059 0.0588235
488 1 0.647059 0.647059 0.0588235
489 1 0.705882 0.647059 0.0588235
490 1 0.764706 0.647059 0.0588235
491 1 0.823529 0.647059 0.0588235
492 1 0.882353 0.647059 0.0588235
493 1 0.941176 0.647059 0.0588235
494 1 0 0.705882 0.0588235
495 1 0.0588235 0.705882 0.0588235
496 1 0.117647 0.705882 0.0588235
497 1 0.176471 0.705882 0.0588235
498 1 0.235294 0.705882 0.0588235
499 1 0.294118 0.705882 0.0588235
500 1 0.352941 0.705882 0.0588235
501 1 0.411765 0.705882 0.0588235
502 1 0.470588 0.705882 0.0588235
503 1 0.529412 0.705882 0.0588235
504 1 0.588235 0.705882 0.0588235
505 1 0.647059 0.705882 0.0588235
506 1 0.705882 0.705882 0.0588235
507 1 0.764706 0.705882 0.0588235
508 1 0.823529 0.705882 0.0588235
509 1 0.882353 0.705882 0.0588235
510 1 0.941176 0.705882 0.0588235
511 1 0 0.764706 0.0588235
512 1 0.0588235 0.764706 0.0588235
513 1 0.117647 0.764706 0.0588235
514 1 0.176471 0.764706 0.0588235
515 1 0.235294 0.764706 0.0588235
516 1 0.294118 0.764706 0.0588235
517 1 0.352941 0.764706 0.0588235
518 1 0.411765 0.764706 0.0588235
519 1 0.470588 0.764706 0.0588235
520 1 0.529412 0.764706 0.0588235
521 1 0.588235 0.764706 0.0588235
522 1 0.647059 0.764706 0.0588235
523 1 0.705882 0.764706 0.0588235
524 1 0.764706 0.764706 0.0588235
525 1 0.823529 0.764706 0.0588235
526 1 0.882353 0.764706 0.0588235
527 1 0.941176 0.764706 0.0588235
528 1 0 0.823529 0.0588235
529 1 0.0588235 0.823529 0.0588235
530 1 0.117647 0.823529 0.0588235
531 1 0.176471 0.823529 0.0588235
532 1 0.235294 0.823529 0.0588235
533 1 0.294118 0.823529 0.0588235
534 1 0.352941 0.823529 0.0588235
535 1 0.411765 0.823529 0.0588235
536 1 0.470588 0.823529 0.0588235
537 1 0.529412 0.823529 0.0588235
538 1 0.588235 0.823529 0.0588235
539 1 0.647059 0.823529 0.0588235
540 1 0.705882 0.823529 0.0588235
541 1 0.764706 0.823529 0.0588235
542 1 0.823529 0.823529 0.0588235
543 1 0.882353 0.823529 0.0588235
544 1 0.941176 0.823529 0.0588235
545 1 0 0.882353 0.0588235
546 1 0.0588235 0.882353 0.0588235
547 1 0.117647 0.882353 0.0588235
548 1 0.176471 0.882353 0.0588235
549 1 0.235294 0.882353 0.0588235
550 1 0.294118 0.882353 0.0588235
551 1 0.352941 0.882353 0.0588235
552 1 0.411765 0.882353 0.0588235
553 1 0.470588 0.882353 0.0588235
554 1 0.529412 0.882353 0.0588235
555 1 0.588235 0.882353 0.0588235
556 1 0.647059 0.882353 0.0588235
557 1 0.705882 0.882353 0.0588235
558 1 0.764706 0.882353 0.0588235
559 1 0.823529 0.882353 0.0588235
560 1 0.882353 0.882353 0.0588235
561 1 0.941176 0.882353 0.0588235
562 1 0 0.941176 0.0588235
563 1 0.0588235 0.941176 0.0588235
564 1 0.117647 0.941176 0.0588235
565 1 0.176471 0.941176 0.0588235
566 1 0.235294 0.941176 0.0588235
567 1 0.294118 0.941176 0.0588235
568 1 0.352941 0.941176 0.0588235
569 1 0.411765 0.941176 0.0588235
570 1 0.470588 0.941176 0.0588235
571 1 0.529412 0.941176 0.0588235
572 1 0.588235 0.941176 0.0588235
573 1 0.647059 0.941176 0.0588235
574 1 0.705882 0.941176 0.0588235
575 1 0.764706 0.941176 0.0588235
576 1 0.823529 0.941176 0.0588235
577 1 0.882353 0.941176 0.0588235
578 1 0.941176 0.941176 0.0588235
579 1 0 0 0.117647
580 1 0.0588235 0 0.117647
581 1 0.117647 0 0.117647
582 1 0.176471 0 0.117647
583 1 0.235294 0 0.117647
584 1 0.294118 0 0.117647
585 1 0.352941 0 0.117647
586 1 0.411765 0 0.117647
587 1 0.470588 0 0.117647
588 1 0.529412 0 0.117647
589 1 0.588235 0 0.117647
590 1 0.647059 0 0.117647
591 1 0.705882 0 0.117647
592 1 0.764706 0 0.117647
593 1 0.823529 0 0.117647
594 1 0.882353 0 0.117647
595 1 0.941176 0 0.117647
596 1 0 0.0588235 0.117647
597 1 0.0588235 0.0588235 0.117647
598 1 0.117647 0.0588235 0.117647
599 1 0.176471 0.0588235 0.117647
600 1 0.235294 0.0588235 0.117647
601 1 0.294118 0.0588235 0.117647
602 1 0.352941 0.0588235 0.117647
603 1 0.411765 0.0588235 0.117647
604 1 0.470588 0.0588235 0.117647
605 1 0.529412 0.0588235 0.117647
606 1 0.588235 0.0588235 0.117647
607 1 0.647059 0.0588235 0.117647
608 1 0.705882 0.0588235 0.117647
609 1 0.764706 0.0588235 0.117647
610 1 0.823529 0.0588235 0.117647
611 1 0.882353 0.0588235 0.117647
612 1 0.941176 0.0588235 0.117647
613 1 0 0.117647 0.117647
614 1 0.0588235 0.117647 0.117647
615 1 0.117647 0.117647 0.117647
616 1 0.176471 0.117647 0.117647
617 1 0.235294 0.117647 0.117647
618 1 0.294118 0.117647 0.117647
619 1 0.352941 0.117647 0.117647
620 1 0.411765 0.117647 0.117647
621 1 0.470588 0.117647 0.117647
622 1 0.529412 0.117647 0.117647
623 1 0.588235 0.117647 0.117647
624 1 0.647059 0.117647 0.117647
625 1 0.705882 0.117647 0.117647
626 1 0.764706 0.117647 0.117647
627 1 0.823529 0.117647 0.117647
628 1 0.882353 0.117647 0.117647
629 1 0.941176 0.117647 0.117647
630 1 0 0.176471 0.117647
631 1 0.0588235 0.176471 0.117647
632 1 0.117647 0.176471 0.117647
633 1 0.176471 0.176471 0.117647
634 1 0.235294 0.176471 0.117647
635 1 0.294118 0.176471 0.117647
636 1 0.352941 0.176471 0.117647
637 1 0.411765 0.176471 0.117647
638 1 0.470588 0.176471 0.117647
639 1 0.529412 0.176471 0.117647
640 1 0.588235 0.176471 0.117647
641 1 0.647059 0.176471 0.117647
642 1 0.705882 0.176471 0.117647
643 1 0.764706 0.176471 0.117647
644 1 0.823529 0.176471 0.117647
645 1 0.882353 0.176471 0.117647
646 1 0.941176 0.176471 0.117647
647 1 0 0.235294 0.117647
648 1 0.0588235 0.235294 0.117647
649 1 0.117647 0.235294 0.117647
650 1 0.176471 0.235294 0.117647
651 1 0.235294 0.235294 0.117647
652 1 0.294118 0.235294 0.117647
653 1 0.352941 0.235294 0.117647
654 1 0.411765 0.235294 0.117647
655 1 0.470588 0.235294 0.117647
656 1 0.529412 0.235294 0.117647
657 1 0.588235 0.235294 0.117647
658 1 0.647059 0.235294 0.117647
659 1 0.705882 0.235294 0.117647
660 1 0.764706 0.235294 0.117647
661 1 0.823529 0.235294 0.117647
662 1 0.882353 0.235294 0.117647
663 1 0.941176 0.235294 0.117647
664 1 0 0.294118 0.117647
665 1 0.0588235 0.294118 0.117647
666 1 0.117647 0.294118 0.117647
667 1 0.176471 0.294118 0.117647
668 1 0.235294 0.294118 0.117647
669 1 0.294118 0.294118 0.117647
670 1 0.352941 0.294118 0.117647
671 1 0.411765 0.294118 0.117647
672 1 0.470588 0.294118 0.117647
673 1 0.529412 0.294118 0.117647
674 1 0.588235 0.294118 0.117647
675 1 0.647059 0.294118 0.117647
676 1 0.705882 0.294118 0.117647
677 1 0.764706 0.294118 0.117647
678 1 0.823529 0.294118 0.117647
679 1 0.882353 0.294118 0.117647
680 1 0.941176 0.294118 0.117647
681 1 0 0.352941 0.117647
682 1 0.0588235 0.352941 0.117647
683 1 0.117647 0.352941 0.117647
684 1 0.176471 0.352941 0.117647
685 1 0.235294 0.352941 0.117647
686 1 0.294118 0.352941 0.117647
687 1 0.352941 0.352941 0.117647
688 1 0.411765 0.352941 0.117647
689 1 0.470588 0.352941 0.117647
690 1 0.529412 0.352941 0.117647
691 1 0.588235 0.352941 0.117647
692 1 0.647059 0.352941 0.117647
693 1 0.705882 0.352941 0.117647
694 1 0.764706 0.352941 0.117647
695 1 0.823529 0.352941 0.117647
696 1 0.882353 0.352941 0.117647
697 1 0.941176 0.352941 0.117647
698 1 0 0.411765 0.117647
699 1 0.0588235 0.411765 0.117647
700 1 0.117647 0.411765 0.117647
701 1 0.176471 0.411765 0.117647
702 1 0.235294 0.411765 0.117647
703 1 0.294118 0.411765 0.117647
704 1 0.352941 0.411765 0.117647
705 1 0.411765 0.411765 0.117647
706 1 0.470588 0.411765 0.117647
707 1 0.529412 0.411765 0.117647
708 1 0.588235 0.411765 0.117647
709 1 0.647059 0.411765 0.117647
710 1 0.705882 0.411765 0.117647
711 1 0.764706 0.411765 0.117647
712 1 0.823529 0.411765 0.117647
713 1 0.882353 0.411765 0.117647
714 1 0.941176 0.411765 0.117647
715 1 0 0.470588 0.117647
716 1 0.0588235 0.470588 0.117647
717 1 0.117647 0.470588 0.117647
718 1 0.176471 0.470588 0.117647
719 1 0.235294 0.470588 0.117647
720 1 0.294118 0.470588 0.117647
721 1 0.352941 0.470588 0.117647
722 1 0.411765 0.470588 0.117647
723 1 0.470588 0.470588 0.117647
724 1 0.529412 0.470588 0.117647
725 1 0.588235 0.470588 0.117647
726 1 0.647059 0.470588 0.117647
727 1 0.705882 0.470588 0.117647
728 1 0.764706 0.470588 0.117647
729 1 0.823529 0.470588 0.117647
730 1 0.882353 0.470588 0.117647
731 1 0.941176 0.470588 0.117647
732 1 0 0.529412 0.117647
733 1 0.0588235 0.529412 0.117647
734 1 0.117647 0.529412 0.117647
735 1 0.176471 0.529412 0.117647
736 1 0.235294 0.529412 0.117647
737 1 0.294118 0.529412 0.117647
738 1 0.352941 0.529412 0.117647
739 1 0.411765 0.529412 0.117647
740 1 0.470588 0.529412 0.117647
741 1 0.529412 0.529412 0.117647
742 1 0.588235 0.529412 0.117647
743 1 0.647059 0.529412 0.117647
744 1 0.705882 0.529412 0.117647
745 1 0.764706 0.529412 0.117647
746 1 0.823529 0.529412 0.117647
747 1 0.882353 0.529412 0.117647
748 1 0.941176 0.529412 0.117647
749 1 0 0.588235 0.117647
750 1 0.0588235 0.588235 0.117647
751 1 0.117647 0.588235 0.117647
752 1 0.176471 0.588235 0.117647
753 1 0.235294 0.588235 0.117647
754 1 0.294118 0.588235 0.117647
755 1 0.352941 0.588235 0.117647
756 1 0.411765 0.588235 0.117647
757 1 0.470588 0.588235 0.117647
758 1 0.529412 0.588235 0.117647
759 1 0.588235 0.588235 0.117647
760 1 0.647059 0.588235 0.117647
761 1 0.705882 0.588235 0.117647
762 1 0.764706 0.588235 0.117647
763 1 0.823529 0.588235 0.117647
764 1 0.882353 0.588235 0.117647
765 1 0.941176 0.588235 0.117647
766 1 0 0.647059 0.117647
767 1 0.0588235 0.647059 0.117647
768 1 0.117647 0.647059 0.117647
769 1 0.176471 0.647059 0.117647
770 1 0.235294 0.647059 0.117647
771 1 0.294118 0.647059 0.117647
772 1 0.352941 0.647059 0.117647
773 1 0.411765 0.647059 0.117647
774 1 0.470588 0.647059 0.117647
775 1 0.529412 0.647059 0.117647
776 1 0.588235 0.647059 0.117647
777 1 0.647059 0.647059 0.117647
778 1 0.705882 0.647059 0.117647
779 1 0.764706 0.647059 0.117647
780 1 0.823529 0.647059 0.117647
781 1 0.882353 0.647059 0.117647
782 1 0.941176 0.647059 0.117647
783 1 0 0.705882 0.117647
784 1 0.0588235 0.705882 0.117647
785 1 0.117647 0.705882 0.117647
786 1 0.176471 0.705882 0.117647
787 1 0.235294 0.705882 0.117647
788 1 0.294118 0.705882 0.117647
789 1 0.352941 0.705882 0.117647
790 1 0.411765 0.705882 0.117647
791 1 0.470588 0.705882 0.117647
792 1 0.529412 0.705882 0.117647
793 1 0.588235 0.705882 0.117647
794 1 0.647059 0.705882 0.117647
795 1 0.705882 0.705882 0.117647
796 1 0.764706 0.705882 0.117647
797 1 0.823529 0.705882 0.117647
798 1 0.882353 0.705882 0.117647
799 1 0.941176 0.705882 0.117647
800 1 0 0.764706 0.117647
801 1 0.0588235 0.764706 0.117647
802 1 0.117647 0.764706 0.117647
803 1 0.176471 0.764706 0.117647
804 1 0.235294 0.764706 0.117647
805 1 0.294118 0.764706 0.117647
806 1 0.352941 0.764706 0.117647
807 1 0.411765 0.764706 0.117647
808 1 0.470588 0.764706 0.117647
809 1 0.529412 0.764706 0.117647
810 1 0.588235 0.764706 0.117647
811 1 0.647059 0.764706 0.117647
812 1 0.705882 0.764706 0.117647
813 1 0.764706 0.764706 0.117647
814 1 0.823529 0.764706 0.117647
815 1 0.882353 0.764706 0.117647
816 1 0.941176 0.764706 0.117647
817 1 0 0.823529 0.117647
818 1 0.0588235 0.823529 0.117647
819 1 0.117647 0.823529 0.117647
820 1 0.176471 0.823529 0.117647
821 1 0.235294 0.823529 0.117647
822 1 0.294118 0.823529 0.117647
823 1 0.352941 0.823529 0.117647
824 1 0.411765 0.823529 0.117647
825 1 0.470588 0.823529 0.117647
826 1 0.529412 0.823529 0.117647
827 1 0.588235 0.823529 0.117647
828 1 0.647059 0.823529 0.117647
829 1 0.705882 0.823529 0.117647
830 1 0.764706 0.823529 0.117647
831 1 0.823529 0.823529 0.117647
832 1 0.882353 0.823529 0.117647
833 1 0.941176 0.823529 0.117647
834 1 0 0.882353 0.117647
835 1 0.0588235 0.882353 0.117647
836 1 0.117647 0.882353 0.117647
837 1 0.176471 0.882353 0.117647
838 1 0.235294 0.882353 0.117647
839 1 0.294118 0.882353 0.117647
840 1 0.352941 0.882353 0.117647
841 1 0.411765 0.882353 0.117647
842 1 0.470588 0.882353 0.117647
843 1 0.529412 0.882353 0.117647
844 1 0.588235 0.882353 0.117647
845 1 0.647059 0.882353 0.117647
846 1 0.705882 0.882353 0.117647
847 1 0.764706 0.882353 0.117647
848 1 0.823529 0.882353 0.117647
849 1 0.882353 0.882353 0.117647
850 1 0.941176 0.882353 0.117647
851 1 0 0.941176 0.117647
852 1 0.0588235 0.941176 0.117647
853 1 0.117647 0.941176 0.117647
854 1 0.176471 0.941176 0.117647
855 1 0.235294 0.941176 0.117647
856 1 0.294118 0.941176 0.117647
857 1 0.352941 0.941176 0.117647
858 1 0.411765 0.941176 0.117647
859 1 0.470588 0.941176 0.117647
860 1 0.529412 0.941176 0.117647
861 1 0.588235 0.941176 0.117647
862 1 0.647059 0.941176 0.117647
863 1 0.705882 0.941176 0.117647
864 1 0.764706 0.941176 0.117647
865 1 0.823529 0.941176 0.117647
866 1 0.882353 0.941176 0.117647
867 1 0.941176 0.941176 0.117647
868 1 0 0 0.176471
869 1 0.0588235 0 0.176471
870 1 0.117647 0 0.176471
871 1 0.176471 0 0.176471
872 1 0.235294 0 0.176471
873 1 0.294118 0 0.176471
874 1 0.352941 0 0.176471
875 1 0.411765 0 0.176471
876 1 0.470588 0 0.176471
877 1 0.529412 0 0.176471
878 1 0.588235 0 0.176471
879 1 0.647059 0 0.176471
880 1 0.705882 0 0.176471
881 1 0.764706 0 0.176471
882 1 0.823529 0 0.176471
883 1 0.882353 0 0.176471
884 1 0.941176 0 0.176471
885 1 0 0.0588235 0.176471
886 1 0.0588235 0.0588235 0.176471
887 1 0.117647 0.0588235 0.176471
888 1 0.176471 0.0588235 0.176471
889 1 0.235294 0.0588235 0.176471
890 1 0.294118 0.0588235 0.176471
891 1 0.352941 0.0588235 0.176471
892 1 0.411765 0.0588235 0.176471
893 1 0.470588 0.0588235 0.176471
894 1 0.529412 0.0588235 0.176471
895 1 0.588235 0.0588235 0.176471
896 1 0.647059 0.0588235 0.176471
897 1 0.705882 0.0588235 0.176471
898 1 0.764706 0.0588235 0.176471
899 1 0.823529 0.0588235 0.176471
900 1 0.882353 0.0588235 0.176471
901 1 0.941176 0.0588235 0.176471
902 1 0 0.117647 0.176471
903 1 0.0588235 0.117647 0.176471
904 1 0.117647 0.117647 0.176471
905 1 0.176471 0.117647 0.176471
906 1 0.235294 0.117647 0.176471
907 1 0.294118 0.117647 0.176471
908 1 0.352941 0.117647 0.176471
909 1 0.411765 0.117647 0.176471
910 1 0.470588 0.117647 0.176471
911 1 0.529412 0.117647 0.176471
912 1 0.588235 0.117647 0.176471
913 1 0.647059 0.117647 0.176471
914 1 0.705882 0.117647 0.176471
915 1 0.764706 0.117647 0.176471
916 1 0.823529 0.117647 0.176471
917 1 0.882353 0.117647 0.176471
918 1 0.941176 0.117647 0.176471
919 1 0 0.176471 0.176471
920 1 0.0588235 0.176471 0.176471
921 1 0.117647 0.176471 0.176471
922 1 0.176471 0.176471 0.176471
923 1 0.235294 0.176471 0.176471
924 1 0.294118 0.176471 0.176471
925 1 0.352941 0.176471 0.176471
926 1 0.411765 0.176471 0.176471
927 1 0.470588 0.176471 0.176471
928 1 0.529412 0.176471 0.176471
929 1 0.588235 0.176471 0.176471
930 1 0.647059 0.176471 0.176471
931 1 0.705882 0.176471 0.176471
932 1 0.764706 0.176471 0.176471
933 1 0.823529 0.176471 0.176471
934 1 0.882353 0.176471 0.176471
935 1 0.941176 0.176471 0.176471
936 1 0 0.235294 0.176471
937 1 0.0588235 0.235294 0.176471
938 1 0.117647 0.235294 0.176471
939 1 0.176471 0.235294 0.176471
940 1 0.235294 0.235294 0.176471
941 1 0.294118 0.235294 0.176471
942 1 0.352941 0.235294 0.176471
943 1 0.411765 0.235294 0.176471
944 1 0.470588 0.235294 0.176471
945 1 0.529412 0.235294 0.176471
946 1 0.588235 0.235294 0.176471
947 1 0.647059 0.235294 0.176471
948 1 0.705882 0.235294 0.176471
949 1 0.764706 0.235294 0.176471
950 1 0.823529 0.235294 0.176471
951 1 0.882353 0.235294 0.176471
952 1 0.941176 0.235294 0.176471
953 1 0 0.294118 0.176471
954 1 0.0588235 0.294118 0.176471
955 1 0.117647 0.294118 0.176471
956 1 0.176471 0.294118 0.176471
957 1 0.235294 0.294118 0.176471
958 1 0.294118 0.294118 0.176471
959 1 0.352941 0.294118 0.176471
960 1 0.411765 0.294118 0.176471
961 1 0.470588 0.294118 0.176471
962 1 0.529412 0.294118 0.176471
963 1 0.588235 0.294118 0.176471
964 1 0.647059 0.294118 0.176471
965 1 0.705882 0.294118 0.176471
966 1 0.764706 0.294118 0.176471
967 1 0.823529 0.294118 0.176471
968 1 0.882353 0.294118 0.176471
969 1 0.941176 0.294118 0.176471
970 1 0 0.352941 0.176471
971 1 0.0588235 0.352941 0.176471
972 1 0.117647 0.352941 0.176471
973 1 0.176471 0.352941 0.176471
974 1 0.235294 0.352941 0.176471
975 1 0.294118 0.352941 0.176471
976 1 0.352941 0.352941 0.176471
977 1 0.411765 0.352941 0.176471
978 1 0.470588 0.352941 0.176471
979 1 0.529412 0.352941 0.176471
980 1 0.588235 0.352941 0.176471