LAMMPS data file via write_data, version 29 Aug 2024, timestep = 20000, units = lj

100 atoms
1 atom types
100 ellipsoids

0 5.503212081491045 xlo xhi
0 5.503212081491045 ylo yhi
0 4.402569665192836 zlo zhi

Atoms # ellipsoid/kk

5 1 1 14.92077591486519 1.2131987230658883 0.0041926938751822365 0.3143788281744648 0 0 0
11 1 1 14.92077591486519 2.095498743928004 0.7862760777529575 0.21258163321170118 0 0 0
2 1 1 14.92077591486519 0.23924060205919195 0.19881972872438486 1.0372801888604457 0 0 0
10 1 1 14.92077591486519 2.4841422791291956 0.10017277511892532 1.1544159015917956 0 0 0
8 1 1 14.92077591486519 1.2303705341667532 0.9774359330529648 0.8383660217548118 0 0 0
12 1 1 14.92077591486519 2.3529761305163746 1.1765609974363749 1.2784065606987123 0 0 0
53 1 1 14.92077591486519 0.2791094264517422 1.1554570909094748 1.704134211792618 0 0 0
57 1 1 14.92077591486519 1.5641080813057824 0.9480292353776236 1.991724014069538 0 0 0
59 1 1 14.92077591486519 2.0124562517926012 0.21608508541518978 2.672000309595684 0 0 0
58 1 1 14.92077591486519 0.5789095399759498 0.9791167314454997 2.7730861464830654 0 0 0
61 1 1 14.92077591486519 2.266864302681769 1.6540093575962034 2.442429030257178 0 0 0
62 1 1 14.92077591486519 1.5918155133443634 1.1768750139274722 3.5442405153757295 0 0 0
66 1 1 14.92077591486519 2.69629024560141 1.1581789061291938 3.289705010716437 0 0 0
1 1 1 14.92077591486519 0.3163784450431739 0.46857064814372174 4.374661383992113 0 0 -1
60 1 1 14.92077591486519 1.7697972677712877 0.029507042215704316 3.805847126541282 0 0 0
7 1 1 14.92077591486519 0.7173335140697558 1.506270040361587 4.27965056069909 0 0 -1
21 1 1 14.92077591486519 0.09626195287075268 2.396074492018276 0.1398556211577176 0 0 0
23 1 1 14.92077591486519 1.2995959392728464 2.2107536813902544 0.5497840085459565 0 0 0
31 1 1 14.92077591486519 0.13112244970274134 3.41430499327358 0.47975999054915686 0 0 0
35 1 1 14.92077591486519 1.1977411314238693 3.5222144090863523 0.17435978765858806 0 0 0
26 1 1 14.92077591486519 2.4317598264670743 2.206615326805381 0.870604449236282 0 0 0
36 1 1 14.92077591486519 1.4227410383174608 3.0822335073752067 1.2094313380637216 0 0 0
40 1 1 14.92077591486519 2.5439358639110163 3.2704461344176083 0.8508414417777579 0 0 0
24 1 1 14.92077591486519 1.1146266062146055 1.9328686251366116 1.6315097353345778 0 0 0
75 1 1 14.92077591486519 1.9595856283286242 2.7482418448471226 2.1584297524580647 0 0 0
32 1 1 14.92077591486519 0.061287103489230055 3.301863888872561 1.6007542187708848 0 0 0
73 1 1 14.92077591486519 1.1470330205649208 1.8836126272582026 2.711129646616995 0 0 0
85 1 1 14.92077591486519 0.8088875200459102 2.8920618123007182 2.2612712207012207 0 0 0
76 1 1 14.92077591486519 2.101108796943723 2.4733776696450485 3.204423932329323 0 0 0
86 1 1 14.92077591486519 1.1833820356637612 3.505196393002053 3.1346773190915562 0 0 0
90 1 1 14.92077591486519 2.3136451548061694 3.589402347708717 3.0457573774346045 0 0 0
74 1 1 14.92077591486519 1.044608153591502 2.598871245772203 3.9234745403081335 0 0 0
25 1 1 14.92077591486519 2.2824098771145276 1.9288684740497803 4.1180714439631005 0 0 -1
39 1 1 14.92077591486519 2.2515634791396573 3.067039553835162 4.149233855710842 0 0 -1
9 1 1 14.92077591486519 2.4948601342705534 5.202193566796587 0.1802142850145645 0 -1 0
38 1 1 14.92077591486519 0.9823008712290792 4.1322960331489496 1.2039251279065948 0 0 0
42 1 1 14.92077591486519 2.140959783067461 4.482147009078684 0.9994121369159498 0 0 0
6 1 1 14.92077591486519 1.2588341408386956 5.173594076625968 1.365363318830641 0 -1 0
89 1 1 14.92077591486519 2.5034950208506617 3.671848926438618 1.8807299772406416 0 0 0
91 1 1 14.92077591486519 2.032888295153658 4.677238250536526 2.105644630074883 0 0 0
87 1 1 14.92077591486519 0.9011246885840563 4.162436322945803 2.2620261397577703 0 0 0
55 1 1 14.92077591486519 0.875418057711438 5.333558579978755 2.3389306383842383 0 -1 0
88 1 1 14.92077591486519 1.3351053000258029 4.563226247172889 3.202137066702995 0 0 0
84 1 1 14.92077591486519 0.20128018775003628 4.643052611986145 2.9734923462845337 0 0 0
56 1 1 14.92077591486519 0.7203953312752659 5.4640815961333145 3.500725066794287 0 -1 0
92 1 1 14.92077591486519 2.4229278076871785 4.739672399654556 3.157563935114852 0 0 0
82 1 1 14.92077591486519 0.380759929419173 3.697452449235439 3.861032692282683 0 0 0
41 1 1 14.92077591486519 2.033712944159453 4.2297789084239374 4.294011115589705 0 0 -1
37 1 1 14.92077591486519 0.8249004479874001 4.625953209651047 4.170109539139241 0 0 -1
13 1 1 14.92077591486519 3.502552813561283 0.24484347419382912 0.0895586646992455 0 0 0
17 1 1 14.92077591486519 4.8235380719541 0.0969423992863399 0.12226866565683497 0 0 0
15 1 1 14.92077591486519 3.225238359071207 1.3463756482644866 0.14737794971478688 0 0 0
4 1 1 14.92077591486519 5.377033104196056 1.360796763427191 0.5688338620995088 -1 0 0
16 1 1 14.92077591486519 3.418438541521418 0.869177534145855 1.2545393791224537 0 0 0
20 1 1 14.92077591486519 4.711720815630827 0.6475547198163641 1.104481093923623 0 0 0
69 1 1 14.92077591486519 4.271492459994869 0.4874963506078706 2.153173214680919 0 0 0
79 1 1 14.92077591486519 4.2611421573269315 1.5699448528672053 1.8809502158604805 0 0 0
51 1 1 14.92077591486519 5.406106292725409 0.24075562188663732 2.2819854838265927 -1 0 0
65 1 1 14.92077591486519 3.356315322508396 1.1243316855822467 2.415204294902334 0 0 0
54 1 1 14.92077591486519 4.974026013226705 1.2167540941251105 2.5904391434158223 -1 0 0
64 1 1 14.92077591486519 2.937654264535257 0.14954710320559628 3.5239654048432287 0 0 0
70 1 1 14.92077591486519 3.856499551668759 0.8600787758599571 3.3963431384622904 0 0 0
52 1 1 14.92077591486519 5.166981008628504 0.20162191225221004 3.467373132586467 -1 0 0
3 1 1 14.92077591486519 5.3601771658592545 1.4186536030086236 3.612857666147778 -1 0 -1
19 1 1 14.92077591486519 4.368924978677766 1.1460562924439368 4.3254362601330465 0 0 -1
28 1 1 14.92077591486519 3.5114043110811637 2.4586910469226484 0.6700783579464242 0 0 0
43 1 1 14.92077591486519 3.6497692016507903 3.4681692138101927 0.42192918878566216 0 0 0
30 1 1 14.92077591486519 4.442314442304223 1.9080125758034072 0.8637863018902403 0 0 0
22 1 1 14.92077591486519 5.463654669238852 2.2565500532643252 1.2262542820413718 -1 0 0
48 1 1 14.92077591486519 4.6590108963124885 2.9578965613698713 0.8893533304692471 0 0 0
77 1 1 14.92077591486519 3.2294470543930633 2.175654927482321 1.7947159461630513 0 0 0
97 1 1 14.92077591486519 4.434370379235809 2.6642204489997505 1.8840444463371013 0 0 0
44 1 1 14.92077591486519 3.5152752077959395 3.226405449654245 1.5199989312019926 0 0 0
78 1 1 14.92077591486519 3.188032883131991 2.1466127299406765 2.8805338628386217 0 0 0
71 1 1 14.92077591486519 5.468589420256592 2.1979998045642155 2.366306854798474 -1 0 0
93 1 1 14.92077591486519 3.320426089905295 3.2310552288630348 2.6354792401555898 0 0 0
98 1 1 14.92077591486519 4.3719447736975505 3.025228098942682 2.9112359987807035 0 0 0
80 1 1 14.92077591486519 4.294066627178847 1.9386964396079154 3.13205972868286 0 0 0
72 1 1 14.92077591486519 5.473796748624495 2.5208139565960006 3.4431910538680612 -1 0 0
81 1 1 14.92077591486519 5.356966723631592 3.4914323101927045 2.8757717180357862 -1 0 0
27 1 1 14.92077591486519 3.4435717913106076 2.224120178647455 3.910303449754314 0 0 -1
29 1 1 14.92077591486519 4.524108455960895 2.5133170705003787 4.0014287573425555 0 0 -1
94 1 1 14.92077591486519 3.663563477682181 3.289655629898506 3.6953383412258716 0 0 0
47 1 1 14.92077591486519 4.6488066070519585 3.607858925053713 4.399237982694785 0 0 -1
46 1 1 14.92077591486519 3.2032859920046475 4.489427410360018 0.726205602187122 0 0 0
34 1 1 14.92077591486519 5.333834618290727 4.567236103220562 0.6569237828436886 -1 0 0
49 1 1 14.92077591486519 4.159369177277768 4.7077786326057405 0.18119229648180818 0 0 0
50 1 1 14.92077591486519 4.39442360073361 4.027662931325117 1.113485962896987 0 0 0
14 1 1 14.92077591486519 3.8732208399118964 5.227124623469769 1.2293146505693682 0 -1 0
95 1 1 14.92077591486519 3.2767070065855592 4.468806564858761 1.9268979527883672 0 0 0
83 1 1 14.92077591486519 5.184480424843374 4.28365454710239 2.04781538923381 -1 0 0
18 1 1 14.92077591486519 4.921418781433514 5.145268833372066 1.525799705050741 0 -1 0
99 1 1 14.92077591486519 4.17420605969811 3.857383799787276 2.1964520831834085 0 0 0
63 1 1 14.92077591486519 3.283953147061143 5.463432408818496 2.4839072287048993 0 -1 0
67 1 1 14.92077591486519 4.534480114375169 4.957039309144886 2.616167156370549 0 -1 0
96 1 1 14.92077591486519 3.505383796694186 4.521974916949987 3.0141336017888767 0 0 0
100 1 1 14.92077591486519 4.452435878920043 4.075469472782137 3.2475626633139383 0 0 0
68 1 1 14.92077591486519 4.134566321231249 5.3131161756504595 3.6385810654814468 0 -1 0
45 1 1 14.92077591486519 3.0714971735635617 4.198775295996888 3.955307218701636 0 0 -1
33 1 1 14.92077591486519 5.078056504599297 4.7117849144485975 3.8925912500000646 -1 0 -1

Velocities

5 0.030010007811295297 -0.22722849963469377 0.2886019450069704 0 0 0
11 -0.28120441981164856 0.4379676194864583 -0.2520509308060029 0 0 0
2 -0.26285233491382365 0.34492688236401114 -0.09584683758764798 0 0 0
10 -0.18796238757432157 -0.21850129881487806 -0.24219459277795383 0 0 0
8 0.07507913786577504 0.4096066043988921 -0.0804117653729318 0 0 0
12 0.2888604054607482 0.23651049846066316 0.27962376054823346 0 0 0
53 0.11504522315660803 0.48972081292558406 0.3836005564735257 0 0 0
57 -0.4078301566456872 0.11798659986044732 0.2269223941582808 0 0 0
59 -0.3517922583651665 0.28792636242528635 -0.5297474866709325 0 0 0
58 0.09428827315120965 -0.021696189972134117 -0.26450577467509834 0 0 0
61 -0.11109807344857182 -0.030392600785684575 0.2564312202226036 0 0 0
62 -0.11786777901809803 -0.40247764950931764 -0.04359428558786346 0 0 0
66 -0.021643669075217517 0.13448320138195047 0.6298531764531977 0 0 0
1 0.07632965629044437 -0.4627612066959561 -0.03592248827168705 0 0 0
60 -0.2412412631969734 -0.8797483905877683 -0.42117533771984755 0 0 0
7 -0.47193579090425464 0.8197640765531578 0.37577946912146964 0 0 0
21 0.24017101726541726 -0.16476958908869052 -0.18844678872970014 0 0 0
23 -0.11039918087883432 -0.35887157872840536 0.5402833555821795 0 0 0
31 -0.06432199616225406 0.2811578561731382 0.5420683211799503 0 0 0
35 0.0024715467540600412 -0.2623053087386538 0.5260245172730871 0 0 0
26 -0.3398270596555985 0.04602905923226832 -0.14375856988643165 0 0 0
36 -0.261610210759615 0.3268558626845542 -0.6846030809222677 0 0 0
40 -0.03742503162742482 -0.3639457264681551 0.11750286826340423 0 0 0
24 0.24783033404078011 -0.2664198417098131 0.33948888803526417 0 0 0
75 -0.09151475223447791 0.3666006508672823 -0.2803851393490237 0 0 0
32 -0.20613193364549406 0.154189606874118 -0.09132388413373514 0 0 0
73 -0.4054783312743823 0.41096162181057616 0.1763386033255527 0 0 0
85 -0.07532000075491581 0.29409315350907617 -0.44056630565040406 0 0 0
76 0.0712303418043941 -0.07503228202513439 -0.001140349458201843 0 0 0
86 0.26409338070499416 -0.0035493507843444485 0.2638836382322312 0 0 0
90 0.6895940259480549 -0.6931937118922837 -0.4569022158770548 0 0 0
74 0.05675228143726928 0.043049018751733795 -0.08414902888456009 0 0 0
25 0.06501030800786056 0.19795052188662998 0.21657601556373007 0 0 0
39 -0.027783673610816337 0.12995946310367407 0.356693664403813 0 0 0
9 0.30082821803270576 -0.0638857582658579 -0.6169718742108596 0 0 0
38 0.34225762877613547 0.33598835042148517 -0.12317327591708081 0 0 0
42 0.20625175720978817 -0.00163949490278192 0.08771846776326632 0 0 0
6 0.057406805741879195 0.035074298443893495 -0.38231206312647786 0 0 0
89 0.1879401621409656 0.017618886448420534 -0.6181530942128585 0 0 0
91 -0.032616989928359486 -0.14508053835608095 -0.01830544056872335 0 0 0
87 0.43616942252181234 0.4358080347383044 0.5633992144168253 0 0 0
55 -0.041561836880388524 0.29141285501951775 -0.1267268339125219 0 0 0
88 0.03699666983535381 0.17083863980227362 -0.669693541867579 0 0 0
84 -0.09901849070502493 -0.2704316468674497 0.40152225039955824 0 0 0
56 -0.3048589877757022 -0.06323771299699818 -0.5838344375906468 0 0 0
92 -0.27698601380928367 0.1989574041800958 -0.07785408953048892 0 0 0
82 0.06066445883816352 -0.6379304522994609 -0.05875423632484737 0 0 0
41 -0.0012407929532497954 0.025148853656158484 0.15188472175190057 0 0 0
37 0.33851921822305925 0.3448957439250351 0.26027499749426847 0 0 0
13 -0.15627014002070488 0.22744777445488626 0.46151663246941715 0 0 0
17 -0.2472641741983708 0.3314654203783995 0.4261042183100855 0 0 0
15 0.06829626102922519 -0.03397126003651577 0.49365754725118405 0 0 0
4 -0.1713392497315351 -0.39822295562264126 0.49731400152113825 0 0 0
16 0.018768242709357272 -0.1618398894650975 -0.13781461288797203 0 0 0
20 0.10216202471963937 -0.0646648387059168 0.26934419127015125 0 0 0
69 0.00722532175622224 0.39386933339659885 0.33175612469907884 0 0 0
79 0.1151909012526149 -0.5169674185644845 0.011100811259213021 0 0 0
51 -0.1009252236274707 0.16343528967712104 0.0798840722202893 0 0 0
65 -0.3529746108178773 -0.2737308633486911 -0.029940831842717997 0 0 0
54 0.17020763301365216 -0.5700972070277528 0.1254713453149412 0 0 0
64 -0.09123049319524279 0.43170322403149025 -0.13044187158101517 0 0 0
70 0.2334494754447041 0.5063040156645385 -0.21548318703383573 0 0 0
52 0.27969680159185367 0.16022363820034702 -0.39638361325656274 0 0 0
3 0.39963815126934027 -0.06997506265319854 0.3640066945136997 0 0 0
19 0.42593591354444743 -0.3036242270199896 0.20582315655390807 0 0 0
28 0.09618075760076086 -0.06512799182360242 0.33972479278524514 0 0 0
43 0.23463234389236234 0.8828125472406758 0.16394986680141044 0 0 0
30 -0.2143432000763748 -0.44114136416935174 0.19542430922138 0 0 0
22 0.040935887964188344 0.06611311385322509 0.21116037653254746 0 0 0
48 -0.052986037839633654 -0.10021796840455265 -0.616133260088426 0 0 0
77 -0.44416390690685137 0.019214572845740543 -0.2481000572956571 0 0 0
97 -0.2916591554133189 -0.587258515567294 -0.32540203373346266 0 0 0
44 0.11553058422434143 -0.2940307606993589 -0.23886025282564588 0 0 0
78 -0.13283517981806742 -0.311806350998495 -0.13942733227871346 0 0 0
71 0.0014428995033851548 -0.0963002823165234 -0.20427770577277465 0 0 0
93 -0.5524654820867761 0.08149415903782015 0.504262609774749 0 0 0
98 -0.26319820722410514 -0.10003454397753823 0.38715692575363714 0 0 0
80 -0.058807142249581126 -0.23949220603335275 0.2076659978809414 0 0 0
72 0.21110606108847502 0.40884845625351085 -0.3218589346915825 0 0 0
81 0.45689963919394033 0.09948756242903173 -0.8957818048144973 0 0 0
27 0.19513000204569517 -0.11402180264953056 0.16172747156794243 0 0 0
29 -0.11163101746793222 0.19257187158187003 0.20857110959033182 0 0 0
94 0.2325172655543748 -0.26460516852507 0.1540849284632055 0 0 0
47 0.008874328193921803 0.3994552055288091 0.17073964244422984 0 0 0
46 0.3917478895911088 0.3855382505907933 0.47448064306683085 0 0 0
34 -0.435487313061184 -0.14554813008074627 -0.17621840450306633 0 0 0
49 0.12143785243906996 -0.33504584056908093 -0.18327220834324562 0 0 0
50 -0.12816746582883612 -0.062051358384981554 0.15242098129630138 0 0 0
14 -0.17314215916382156 -0.4166504891118397 -0.17084103332212502 0 0 0
95 0.47981586602974746 -0.20610879195873516 -0.367298043139024 0 0 0
83 0.5539104924448944 0.01436441830254108 -0.6525347306155161 0 0 0
18 -0.3692391094474477 -0.49132416171001375 -0.6909130601101354 0 0 0
99 -0.08188132527883847 -0.20079227773043506 -0.27653425607664434 0 0 0
63 0.16719154376182485 0.1925760855017986 0.3797492106254227 0 0 0
67 -0.4529981637260235 0.2875877502152953 0.3771503272777327 0 0 0
96 0.008216308678151681 -0.256778411664036 0.49578259383016654 0 0 0
100 -0.3696424972169511 -0.19380133840096683 -0.20239159171811805 0 0 0
68 -0.11604877786001251 0.1521848954784258 -0.2357260833640658 0 0 0
45 0.32349943814195625 -0.09929677238344141 -0.12188252762539596 0 0 0
33 0.45678328016844505 0.24544695468014838 -0.2444814414208847 0 0 0

Ellipsoids

5 0.4 0.4 0.8 -0.8201868888528709 -0.079787876086599 -0.3826168807309004 0.41776989451514307
11 0.4 0.4 0.8 0.38859123247990973 0.15476041343427147 -0.9040012116964022 -0.08847529443203075
2 0.4 0.4 0.8 0.02425649887001293 -0.19052881644069816 0.950394466054519 -0.24466456887179575
10 0.4 0.4 0.8 0.21746947492763655 0.77398974574083 0.17340618499497332 0.5688384621034627
8 0.4 0.4 0.8 0.9332136468749389 -0.10106528839873798 0.0850133641085202 -0.3341718490390968
12 0.4 0.4 0.8 -0.28841339397795746 -0.30901951091204355 -0.6714112699447558 0.6087130380080314
53 0.4 0.4 0.8 0.06809527366323892 0.11810601325463395 0.36892351480141056 -0.9194071152456882
57 0.4 0.4 0.8 -0.16221050365808176 0.7090549844965999 -0.4375562405528498 -0.5286523600786955
59 0.4 0.4 0.8 -0.14614312859973574 -0.2722251427814296 0.8519396703822956 -0.4227699795747293
58 0.4 0.4 0.8 -0.028957758894307475 -0.3550080546907442 -0.641952777260438 -0.6789899565325863
61 0.4 0.4 0.8 0.3698964515577882 -0.6358253249616104 0.5172982483308418 0.43738460596626183
62 0.4 0.4 0.8 -0.023652531366884378 0.32109245139982373 -0.9004651860752534 0.29240835159148526
66 0.4 0.4 0.8 0.9393362526499307 -0.06629773047888425 -0.22654523959314596 0.2488559217873246
1 0.4 0.4 0.8 -0.18335027296774725 0.5454699141174355 -0.7102716319687384 -0.4054127020899016
60 0.4 0.4 0.8 -0.5602146996380465 0.29946244021944274 -0.02836343929696212 0.771801303781302
7 0.4 0.4 0.8 -0.001207910523568374 0.1633334387312661 -0.985711935992759 0.04114253256417048
21 0.4 0.4 0.8 -0.29812942698057243 0.6660589610987994 -0.38932474273645756 -0.562059204889854
23 0.4 0.4 0.8 -0.8371183966465895 0.20552858063365775 -0.5001101090842202 0.08294981211748882
31 0.4 0.4 0.8 0.1496197021315966 0.6116225783345673 0.6909424076147525 0.3551483574014638
35 0.4 0.4 0.8 -0.18789531292826525 0.39763972500405936 0.0628059195739834 -0.8958981063406439
26 0.4 0.4 0.8 0.22444892705197517 0.6038994147876924 -0.7498512334200998 -0.15050350063255943
36 0.4 0.4 0.8 0.04271921040697794 0.9113473774278523 0.19916265080542095 0.3577083522113201
40 0.4 0.4 0.8 -0.33421151493258794 0.030729966282579676 -0.6458529021736668 0.6857349059312848
24 0.4 0.4 0.8 -0.9631936557942145 -0.06434126896587909 0.014709719224150835 0.26057975114345194
75 0.4 0.4 0.8 0.05630349183375469 -0.07365119151955896 0.9196247686266943 0.3817010659185726
32 0.4 0.4 0.8 -0.4255129534586185 0.8247486772546224 -0.18422643616394133 -0.32371123864334334
73 0.4 0.4 0.8 0.3656491161850665 0.03511307760680005 0.9293567359773877 0.03693037919538613
85 0.4 0.4 0.8 -0.9320788225608667 -0.22960879199211576 0.18657778943830397 -0.20903970833740107
76 0.4 0.4 0.8 0.11921314352819531 -0.7376676391014865 0.5940720555037582 -0.29784739969001695
86 0.4 0.4 0.8 0.10068461753756888 0.04319319502611902 0.36772133301036264 -0.9234597863165624
90 0.4 0.4 0.8 0.7035188331263785 -0.6008796218871133 -0.3346349679237365 0.17895354056284735
74 0.4 0.4 0.8 -0.5295234018728132 0.7098796169700026 -0.3331279836862364 0.32357633220726817
25 0.4 0.4 0.8 -0.08410673611992203 0.49752099765720353 0.8087006608908376 0.3023278930303276
39 0.4 0.4 0.8 -0.012165745607611422 0.3999901328385855 0.033423790916830856 -0.9158289897499039
9 0.4 0.4 0.8 -0.17058668077641548 -0.6654552900604882 0.6670543714674075 0.2882844199370107
38 0.4 0.4 0.8 -0.7944685864849454 0.020470611918823996 -0.3854824868835113 -0.46883245561968667
42 0.4 0.4 0.8 0.572003772253335 0.1522901484878025 -0.6310873543583858 0.5013463337558688
6 0.4 0.4 0.8 -0.26341334692945817 -0.07001721328540997 0.892796504352268 -0.35864383491081675
89 0.4 0.4 0.8 0.7572778804357065 0.0329097310869496 0.6021415383472478 0.2507443502841059
91 0.4 0.4 0.8 0.5034485563946837 0.11398430481258147 -0.8431157438263513 0.15067505378343118
87 0.4 0.4 0.8 -0.8354896403490518 -0.5377030907059603 -0.11230196955566289 0.014856471606300463
55 0.4 0.4 0.8 0.14386446030819025 -0.4151406611147074 0.8698052204509261 -0.22449972611518426
88 0.4 0.4 0.8 -0.07371176996149902 0.48747018406573356 -0.8467994234109024 0.19967506385882564
84 0.4 0.4 0.8 0.29606868542871434 -0.43977578988603144 -0.5062156771434607 -0.6802104647480938
56 0.4 0.4 0.8 -0.2960308682002676 0.6940593060121217 -0.6406153498580504 -0.14233544300986836
92 0.4 0.4 0.8 -0.40155522170517893 -0.013775363783129645 0.11744621869752528 -0.9081685025300096
82 0.4 0.4 0.8 0.562577804198991 -0.05581236162840736 0.25833862003942965 -0.783359656804092
41 0.4 0.4 0.8 0.6749328069228315 0.10496945719293006 0.514950436086291 -0.5179509316242497
37 0.4 0.4 0.8 0.0799235124437039 -0.5368036342244162 -0.4538752320576564 -0.7067187305899916
13 0.4 0.4 0.8 -0.020541353957190263 0.5820595420817216 -0.46694402696915216 0.6653931303575756
17 0.4 0.4 0.8 -0.29204745674888904 -0.07223808799842024 0.36141359336539686 0.8825362067244322
15 0.4 0.4 0.8 0.2722664083710454 -0.0032687829596919162 0.19963419630861098 0.9412791857865065
4 0.4 0.4 0.8 0.5775973754583935 -0.17812044924920134 -0.4053988160425218 -0.6857887264851762
16 0.4 0.4 0.8 0.1709385119332148 0.6167728746436427 0.7292623131148154 -0.24196637144922578
20 0.4 0.4 0.8 0.33045229097926426 -0.16263016623841875 -0.33938858328218247 -0.865544973963533
69 0.4 0.4 0.8 0.3548742543965351 -0.16137732423372753 -0.6754438769732874 -0.6259370510274657
79 0.4 0.4 0.8 0.4114634179681715 -0.04847001557627906 -0.06720771914302336 -0.9076517150050329
51 0.4 0.4 0.8 -0.06166505936167259 -0.18062944718719942 0.6598445352908965 0.726756914318336
65 0.4 0.4 0.8 0.638398800788354 -0.4844959380199076 0.19375878256473733 -0.5658340669959986
54 0.4 0.4 0.8 0.8176761742815016 -0.47225640868772945 -0.10685035440286458 0.3113881183181495
64 0.4 0.4 0.8 -0.020794939097666516 -0.7992013006726854 0.025851495976443536 -0.6001471083549368
70 0.4 0.4 0.8 0.8774898676349218 0.3130947357481585 -0.3600714615994122 -0.048288313146159174
52 0.4 0.4 0.8 -0.8513989935462929 0.5092057040550194 0.08085654601961037 -0.09639255008541907
3 0.4 0.4 0.8 -0.29575253559201226 -0.6902552704681818 -0.6452076599701533 -0.14065978386742856
19 0.4 0.4 0.8 0.5113019882278463 0.6188602047988448 -0.29991764699458007 -0.5153947310283813
28 0.4 0.4 0.8 -0.3189924423623961 0.1312734147870974 -0.7359439456786364 0.5825784248534855
43 0.4 0.4 0.8 0.24930803046291716 -0.6260682687567817 -0.3216313381681578 -0.6651596132589137
30 0.4 0.4 0.8 -0.11691012703965126 0.17021481437207991 -0.917251625326306 -0.34060005138006205
22 0.4 0.4 0.8 -0.6557996066854527 0.5584446608284588 0.3085802154879212 0.4035401928839574
48 0.4 0.4 0.8 -0.47967252573203034 -0.012075740026867104 -0.805468855552015 -0.34783382138082214
77 0.4 0.4 0.8 0.0828503799423918 0.15204503958606133 0.5140620983606498 0.8400942087109755
97 0.4 0.4 0.8 -0.3150264040652747 0.7332857524507241 0.3703767321634938 -0.47525934632195205
44 0.4 0.4 0.8 0.6353022493207525 -0.1045615146664165 -0.750150226805381 -0.15077326978775962
78 0.4 0.4 0.8 -0.09138853037825656 0.3039000266172499 0.4050672134163455 -0.8574458950583729
71 0.4 0.4 0.8 -0.17421258843545115 -0.8154468084640693 0.4865839131752669 0.2606387769220614
93 0.4 0.4 0.8 -0.8517790299586195 -0.48678842216970547 0.19354016517312367 -0.007191705572515008
98 0.4 0.4 0.8 0.4840845187948722 -0.027644152083275145 0.4175428572593255 0.768476376911127
80 0.4 0.4 0.8 0.2723845493694607 -0.21154649569070846 -0.19287328358029016 -0.9186156072627625
72 0.4 0.4 0.8 -0.4623750106319617 -0.8851968867653035 0.04479292144670574 0.025088152430521458
81 0.4 0.4 0.8 0.4062347865898662 0.7755158999971316 0.4764764019301991 0.08073800480304452
27 0.4 0.4 0.8 0.25220083895829387 -0.5816883807873402 0.6631094241430371 -0.39789352356933977
29 0.4 0.4 0.8 -0.05850476918162671 -0.37862329750298857 0.7000115307534553 -0.6026652863598272
94 0.4 0.4 0.8 -0.029257776059315916 -0.39507433039017087 0.8517381292395678 0.34293208541386516
47 0.4 0.4 0.8 -0.0805923803115347 0.8565533941451003 0.3767656886651189 0.3433202106764589
46 0.4 0.4 0.8 0.014198339665404678 -0.9144655887726524 -0.005129966710056496 0.40438196985398056
34 0.4 0.4 0.8 0.5687084572413182 -0.1730633039803444 -0.8034732028556979 -0.032412895125444985
49 0.4 0.4 0.8 0.0744182769743064 0.21388810786041063 0.8728967721116063 -0.4321631897850711
50 0.4 0.4 0.8 -0.4905357036603709 -0.30799414302859784 -0.5392379628174903 -0.6113401268941436
14 0.4 0.4 0.8 0.1379918014630709 -0.24989982951819145 0.5927643084339791 -0.7530861920009833
95 0.4 0.4 0.8 -0.38424578317725727 -0.5815191641100408 0.6707508646745222 0.2535427329300458
83 0.4 0.4 0.8 0.1454578103562729 -0.5168795093152135 0.8136566231007761 0.22280147652263033
18 0.4 0.4 0.8 -0.36774321524721637 -0.6386751864209185 0.64658082012393 -0.1969572972441251
99 0.4 0.4 0.8 0.5106043985678193 -0.21183822375877792 -0.2463713656686393 0.7960583303354668
63 0.4 0.4 0.8 0.23524344446987358 -0.7647130693005664 -0.14405578257469576 0.5823421459774735
67 0.4 0.4 0.8 -0.521095225381831 0.647851872594453 0.552247954721407 -0.06139962350163418
96 0.4 0.4 0.8 0.6141171915770359 -0.17115102141386312 0.6892193494148933 -0.34430232539243294
100 0.4 0.4 0.8 0.13274711506150724 0.7312921578677674 -0.6686570044139749 0.02208605288594925
68 0.4 0.4 0.8 0.09431753884610314 0.18383690049473142 -0.7238645563271804 0.6582767654837579
45 0.4 0.4 0.8 0.3033791297276849 -0.037161217962040305 0.024328935171818004 -0.9518341506999295
33 0.4 0.4 0.8 0.9040055921111089 -0.17896947741394423 -0.24502792315893832 -0.3011729278312389
