LAMMPS (29 Aug 2024 - Development - patch_29Aug2024-409-g5d879678f6-modified)
KOKKOS mode with Kokkos version 4.3.1 is enabled (../kokkos.cpp:72)
Lattice spacing in x,y,z = 1.1006424 1.1006424 1.1006424
Created orthogonal box = (0 0 0) to (5.5032121 5.5032121 4.4025697)
  2 by 3 by 1 MPI processor grid
Created 100 atoms
  using lattice units in orthogonal box = (0 0 0) to (5.5032121 5.5032121 4.4025697)
  create_atoms CPU = 0.003 seconds
100 atoms in group all
Setting atom values ...
  100 settings made for mass
Setting atom values ...
  100 settings made for shape
Setting atom values ...
  100 settings made for quat/random
Resetting atom IDs ...
Generated 0 of 0 mixed pair_coeff terms from geometric mixing rule
Neighbor list info ...
  update: every = 100 steps, delay = 0 steps, check = yes
  max neighbors/atom: 2000, page size: 100000
  master list distance cutoff = 1.4224615
  ghost atom cutoff = 1.4224615
  binsize = 0.71123076, bins = 8 8 7
  1 neighbor lists, perpetual/occasional/extra = 1 0 0
  (1) pair lj/cut/kk, perpetual
      attributes: half, newton on, kokkos_device
      pair build: half/bin/newton/kk/device
      stencil: half/bin/3d
      bin: kk/device
Generated 0 of 0 mixed pair_coeff terms from geometric mixing rule
Setting up Verlet run ...
  Unit style    : lj
  Current step  : 0
  Time step     : 0.0001
0  ekin = 14.85 | epot = 4.68749999769384 | etot = 19.5374999976938
Per MPI rank memory allocation (min/avg/max) = 5.632 | 5.674 | 5.695 Mbytes
   Step          Temp          E_pair         E_mol          TotEng         Press     
         0   0.1            0.046875       0              0.195375       1.339875     
100  ekin = 14.6080903939163 | epot = 4.92940971780027 | etot = 19.5375001117166
200  ekin = 13.9027725396376 | epot = 5.63472795032067 | etot = 19.5375004899583
300  ekin = 12.8002324366482 | epot = 6.7372689803933 | etot = 19.5375014170415
400  ekin = 11.4340627495521 | epot = 8.10343975644887 | etot = 19.537502506001
500  ekin = 9.95752426236505 | epot = 9.57997912053213 | etot = 19.5375033828972
600  ekin = 8.50959204441843 | epot = 11.0279121675993 | etot = 19.5375042120177
700  ekin = 7.22220228943416 | epot = 12.315302628214 | etot = 19.5375049176481
800  ekin = 6.20783281940404 | epot = 13.3296726127522 | etot = 19.5375054321563
900  ekin = 5.54680259685232 | epot = 13.9907030485301 | etot = 19.5375056453825
1000  ekin = 5.27297151940316 | epot = 14.2645340052556 | etot = 19.5375055246588
1100  ekin = 5.36775843029303 | epot = 14.1697466668682 | etot = 19.5375050971612
1200  ekin = 5.76429288569602 | epot = 13.7732115733983 | etot = 19.5375044590943
1300  ekin = 6.36108505156422 | epot = 13.1764186686941 | etot = 19.5375037202583
1400  ekin = 7.04184989144828 | epot = 12.4956531705953 | etot = 19.5375030620436
1500  ekin = 7.70038915273064 | epot = 11.8371133814458 | etot = 19.5375025341765
1600  ekin = 8.25383347665662 | epot = 11.2836687765648 | etot = 19.5375022532214
1700  ekin = 8.65345760590208 | epot = 10.8840445649413 | etot = 19.5375021708433
1800  ekin = 8.88740221411335 | epot = 10.6501001080934 | etot = 19.5375023222068
1900  ekin = 8.97591454153721 | epot = 10.5615880571419 | etot = 19.5375025986791
2000  ekin = 8.96319151294625 | epot = 10.5743115745214 | etot = 19.5375030874677
2100  ekin = 8.9131443000039 | epot = 10.6243592455504 | etot = 19.5375035455543
2200  ekin = 8.89860690658512 | epot = 10.6388970573756 | etot = 19.5375039639607
2300  ekin = 8.97570394097297 | epot = 10.56180012942 | etot = 19.537504070393
2400  ekin = 9.16761515931865 | epot = 10.3698889448596 | etot = 19.5375041041783
2500  ekin = 9.47551618407514 | epot = 10.0619877976144 | etot = 19.5375039816895
2600  ekin = 9.88191794179092 | epot = 9.65558587251892 | etot = 19.5375038143098
2700  ekin = 10.3576141224249 | epot = 9.17988947138827 | etot = 19.5375035938131
2800  ekin = 10.8677363965079 | epot = 8.66976698224068 | etot = 19.5375033787486
2900  ekin = 11.3761945851109 | epot = 8.16130852446572 | etot = 19.5375031095766
3000  ekin = 11.8448137391743 | epot = 7.69268922274449 | etot = 19.5375029619188
3100  ekin = 12.2480059732321 | epot = 7.28949681649418 | etot = 19.5375027897262
3200  ekin = 12.5669464578692 | epot = 6.97055632073151 | etot = 19.5375027786007
3300  ekin = 12.7959765970335 | epot = 6.74152621402844 | etot = 19.537502811062
3400  ekin = 12.9386758475342 | epot = 6.59882703948238 | etot = 19.5375028870166
3500  ekin = 13.0034835775441 | epot = 6.53401938498065 | etot = 19.5375029625248
3600  ekin = 13.0037242267587 | epot = 6.5337789250137 | etot = 19.5375031517724
3700  ekin = 12.9615708567892 | epot = 6.57593245034425 | etot = 19.5375033071334
3800  ekin = 12.8968589427355 | epot = 6.64064441611673 | etot = 19.5375033588522
3900  ekin = 12.816099021297 | epot = 6.72140439639787 | etot = 19.5375034176949
4000  ekin = 12.7265564742516 | epot = 6.81094705311951 | etot = 19.5375035273711
4100  ekin = 12.6409002337852 | epot = 6.89660332191356 | etot = 19.5375035556988
4200  ekin = 12.5683776111228 | epot = 6.96912595347604 | etot = 19.5375035645988
4300  ekin = 12.5160679468439 | epot = 7.02143565624318 | etot = 19.5375036030871
4400  ekin = 12.4913552368642 | epot = 7.04614844014553 | etot = 19.5375036770098
4500  ekin = 12.5075417698364 | epot = 7.0299620111594 | etot = 19.5375037809958
4600  ekin = 12.5804486736361 | epot = 6.95705520115535 | etot = 19.5375038747914
4700  ekin = 12.7228365324131 | epot = 6.81466740517507 | etot = 19.5375039375882
4800  ekin = 12.9435326710186 | epot = 6.59397132820659 | etot = 19.5375039992252
4900  ekin = 13.2464375909577 | epot = 6.29106633962554 | etot = 19.5375039305832
5000  ekin = 13.6207282563594 | epot = 5.91677553096705 | etot = 19.5375037873264
5100  ekin = 14.042296261291 | epot = 5.49520732237435 | etot = 19.5375035836653
5200  ekin = 14.4797310462169 | epot = 5.05777247131886 | etot = 19.5375035175358
5300  ekin = 14.9095776220385 | epot = 4.62792573168938 | etot = 19.5375033537279
5400  ekin = 15.3032863236554 | epot = 4.23421690572483 | etot = 19.5375032293802
5500  ekin = 15.6367558809992 | epot = 3.90074719695363 | etot = 19.5375030779529
5600  ekin = 15.8907871878721 | epot = 3.6467158447493 | etot = 19.5375030326214
5700  ekin = 16.0565738231805 | epot = 3.48092929731876 | etot = 19.5375031204992
5800  ekin = 16.1394868443611 | epot = 3.39801634797306 | etot = 19.5375031923341
5900  ekin = 16.1440785878565 | epot = 3.39342475790876 | etot = 19.5375033457653
6000  ekin = 16.086741327718 | epot = 3.45076224402347 | etot = 19.5375035717415
6100  ekin = 15.993943172903 | epot = 3.54356055640459 | etot = 19.5375037293076
6200  ekin = 15.8883932962838 | epot = 3.64911055801232 | etot = 19.5375038542961
6300  ekin = 15.7909452710194 | epot = 3.74655869163588 | etot = 19.5375039626553
6400  ekin = 15.7209864663348 | epot = 3.81651758930335 | etot = 19.5375040556382
6500  ekin = 15.6913842727131 | epot = 3.84611975622853 | etot = 19.5375040289416
6600  ekin = 15.7029595546565 | epot = 3.8345443881861 | etot = 19.5375039428426
6700  ekin = 15.7449271326365 | epot = 3.79257682034635 | etot = 19.5375039529829
6800  ekin = 15.8095895220162 | epot = 3.72791422049107 | etot = 19.5375037425073
6900  ekin = 15.8719497284726 | epot = 3.66555387243169 | etot = 19.5375036009043
7000  ekin = 15.9004071643098 | epot = 3.6370962255675 | etot = 19.5375033898773
7100  ekin = 15.8652957833459 | epot = 3.67220743414612 | etot = 19.537503217492
7200  ekin = 15.7466213203349 | epot = 3.79088180528037 | etot = 19.5375031256153
7300  ekin = 15.5411465464799 | epot = 3.99635665565667 | etot = 19.5375032021366
7400  ekin = 15.2669711805433 | epot = 4.27053223988294 | etot = 19.5375034204263
7500  ekin = 14.9636579656239 | epot = 4.57384580337867 | etot = 19.5375037690025
7600  ekin = 14.6787358327525 | epot = 4.85876803138238 | etot = 19.5375038641349
7700  ekin = 14.4379955397325 | epot = 5.09950841962448 | etot = 19.5375039593569
7800  ekin = 14.2622071391447 | epot = 5.27529692125002 | etot = 19.5375040603947
7900  ekin = 14.1672667579961 | epot = 5.37023728620902 | etot = 19.5375040442051
8000  ekin = 14.1522895679777 | epot = 5.38521441926602 | etot = 19.5375039872437
8100  ekin = 14.2023991157311 | epot = 5.33510469482854 | etot = 19.5375038105596
8200  ekin = 14.2934779152889 | epot = 5.24402573652887 | etot = 19.5375036518178
8300  ekin = 14.4025131316428 | epot = 5.13499038407774 | etot = 19.5375035157206
8400  ekin = 14.5113682073601 | epot = 5.02613517414582 | etot = 19.5375033815059
8500  ekin = 14.6041226160479 | epot = 4.93338074882777 | etot = 19.5375033648756
8600  ekin = 14.6770366346476 | epot = 4.86046678321942 | etot = 19.537503417867
8700  ekin = 14.7315522219724 | epot = 4.80595117460599 | etot = 19.5375033965784
8800  ekin = 14.7658975087743 | epot = 4.77160597812536 | etot = 19.5375034868996
8900  ekin = 14.7867783173365 | epot = 4.75072526495701 | etot = 19.5375035822935
9000  ekin = 14.7994211964314 | epot = 4.73808233971861 | etot = 19.53750353615
9100  ekin = 14.800177770125 | epot = 4.7373256399841 | etot = 19.5375034101091
9200  ekin = 14.7836348928202 | epot = 4.75386855581499 | etot = 19.5375034486352
9300  ekin = 14.7489615189488 | epot = 4.78854174825928 | etot = 19.5375032672081
9400  ekin = 14.6893516042742 | epot = 4.84815170744997 | etot = 19.5375033117241
9500  ekin = 14.6039714591458 | epot = 4.93353186276292 | etot = 19.5375033219087
9600  ekin = 14.4917960485787 | epot = 5.04570730179806 | etot = 19.5375033503768
9700  ekin = 14.3535493562072 | epot = 5.18395407771823 | etot = 19.5375034339254
9800  ekin = 14.2013797135317 | epot = 5.33612380931122 | etot = 19.5375035228429
9900  ekin = 14.0521564607805 | epot = 5.48534716495255 | etot = 19.5375036257331
10000  ekin = 13.9218004852942 | epot = 5.6157033241267 | etot = 19.5375038094209
10100  ekin = 13.830665020539 | epot = 5.70683887860733 | etot = 19.5375038991464
10200  ekin = 13.7925175278922 | epot = 5.74498637091063 | etot = 19.5375038988028
10300  ekin = 13.808963324307 | epot = 5.72854051876881 | etot = 19.5375038430759
10400  ekin = 13.8732455394495 | epot = 5.66425816868395 | etot = 19.5375037081334
10500  ekin = 13.9679237386773 | epot = 5.56957987032999 | etot = 19.5375036090073
10600  ekin = 14.0737856743828 | epot = 5.46371778461652 | etot = 19.5375034589993
10700  ekin = 14.172810469588 | epot = 5.36469284714703 | etot = 19.537503316735
10800  ekin = 14.2483314963315 | epot = 5.28917177624558 | etot = 19.537503272577
10900  ekin = 14.2876119457316 | epot = 5.24989134322941 | etot = 19.537503288961
11000  ekin = 14.2949831246088 | epot = 5.24252022307271 | etot = 19.5375033476815
11100  ekin = 14.2852828086121 | epot = 5.25222060898388 | etot = 19.5375034175959
11200  ekin = 14.2675787405833 | epot = 5.26992475471087 | etot = 19.5375034952942
11300  ekin = 14.2462990207238 | epot = 5.29120436533016 | etot = 19.5375033860539
11400  ekin = 14.2106986484917 | epot = 5.32680459759144 | etot = 19.5375032460831
11500  ekin = 14.1387985527089 | epot = 5.39870457486318 | etot = 19.5375031275721
11600  ekin = 14.012535961726 | epot = 5.5249671963253 | etot = 19.5375031580513
11700  ekin = 13.8363434736846 | epot = 5.70115976453418 | etot = 19.5375032382187
11800  ekin = 13.6267641322016 | epot = 5.91073924715296 | etot = 19.5375033793546
11900  ekin = 13.4086602330019 | epot = 6.12884335890655 | etot = 19.5375035919085
12000  ekin = 13.2171500586163 | epot = 6.3203537700718 | etot = 19.5375038286881
12100  ekin = 13.0878591616881 | epot = 6.44964485638654 | etot = 19.5375040180747
12200  ekin = 13.0487264281682 | epot = 6.48877768345921 | etot = 19.5375041116274
12300  ekin = 13.1195107725039 | epot = 6.41799335882956 | etot = 19.5375041313334
12400  ekin = 13.3005811345381 | epot = 6.23692284008415 | etot = 19.5375039746223
12500  ekin = 13.5632638360387 | epot = 5.97423982388565 | etot = 19.5375036599244
12600  ekin = 13.8634565902446 | epot = 5.6740466026696 | etot = 19.5375031929142
12700  ekin = 14.1392553726854 | epot = 5.39824753545458 | etot = 19.53750290814
12800  ekin = 14.3393634013255 | epot = 5.19813933820392 | etot = 19.5375027395294
12900  ekin = 14.4376715326708 | epot = 5.0998311561931 | etot = 19.5375026888639
13000  ekin = 14.4319999950683 | epot = 5.1055027785989 | etot = 19.5375027736672
13100  ekin = 14.3326220490971 | epot = 5.20488091045012 | etot = 19.5375029595472
13200  ekin = 14.163970855718 | epot = 5.37353233209071 | etot = 19.5375031878087
13300  ekin = 13.9621105052054 | epot = 5.57539293262183 | etot = 19.5375034378273
13400  ekin = 13.7718786006292 | epot = 5.76562510830443 | etot = 19.5375037089336
13500  ekin = 13.6232450519001 | epot = 5.91425871548981 | etot = 19.5375037673899
13600  ekin = 13.5120306125605 | epot = 6.02547311391908 | etot = 19.5375037264796
13700  ekin = 13.4233606125457 | epot = 6.11414277088592 | etot = 19.5375033834316
13800  ekin = 13.3189783341473 | epot = 6.21852478369486 | etot = 19.5375031178421
13900  ekin = 13.1628500572432 | epot = 6.37465297867955 | etot = 19.5375030359227
14000  ekin = 12.945517936211 | epot = 6.59198510983545 | etot = 19.5375030460465
14100  ekin = 12.6786526005268 | epot = 6.85885062015764 | etot = 19.5375032206845
14200  ekin = 12.3917917524999 | epot = 7.14571175917467 | etot = 19.5375035116746
14300  ekin = 12.1331319870926 | epot = 7.4043718002293 | etot = 19.5375037873219
14400  ekin = 11.9532899925908 | epot = 7.58421411361581 | etot = 19.5375041062066
14500  ekin = 11.8994120364269 | epot = 7.63809230046399 | etot = 19.5375043368909
14600  ekin = 12.0061316650527 | epot = 7.53137277209763 | etot = 19.5375044371503
14700  ekin = 12.2839727314083 | epot = 7.25353130049361 | etot = 19.5375040319019
14800  ekin = 12.6883139589251 | epot = 6.84918970071983 | etot = 19.537503659645
14900  ekin = 13.152821928177 | epot = 6.38468123279302 | etot = 19.5375031609701
15000  ekin = 13.6055887174523 | epot = 5.93191405883433 | etot = 19.5375027762866
15100  ekin = 13.9811156539694 | epot = 5.5563868889059 | etot = 19.5375025428753
15200  ekin = 14.2347373944268 | epot = 5.3027651292775 | etot = 19.5375025237043
15300  ekin = 14.3537357771482 | epot = 5.18376685888065 | etot = 19.5375026360288
15400  ekin = 14.3545796537007 | epot = 5.18292314820605 | etot = 19.5375028019067
15500  ekin = 14.2723119510409 | epot = 5.26519113960095 | etot = 19.5375030906418
15600  ekin = 14.1461117972742 | epot = 5.39139155648009 | etot = 19.5375033537543
15700  ekin = 14.0205256971617 | epot = 5.51697786952876 | etot = 19.5375035666904
15800  ekin = 13.9318490968109 | epot = 5.60565456919434 | etot = 19.5375036660053
15900  ekin = 13.8966697973866 | epot = 5.64083392457883 | etot = 19.5375037219654
16000  ekin = 13.9179863664826 | epot = 5.61951731129019 | etot = 19.5375036777728
16100  ekin = 13.9844476963863 | epot = 5.55305579894133 | etot = 19.5375034953276
16200  ekin = 14.0714912661778 | epot = 5.46601206255004 | etot = 19.5375033287278
16300  ekin = 14.1561388795446 | epot = 5.38136434170054 | etot = 19.5375032212451
16400  ekin = 14.2244313232978 | epot = 5.3130718683592 | etot = 19.537503191657
16500  ekin = 14.2710473429154 | epot = 5.26645582994057 | etot = 19.537503172856
16600  ekin = 14.2899471533988 | epot = 5.24755597060804 | etot = 19.5375031240069
16700  ekin = 14.278204091158 | epot = 5.25929905720614 | etot = 19.5375031483641
16800  ekin = 14.234748155504 | epot = 5.30275507874728 | etot = 19.5375032342513
16900  ekin = 14.1585084224322 | epot = 5.37899472009865 | etot = 19.5375031425308
17000  ekin = 14.049007811534 | epot = 5.48849533118807 | etot = 19.5375031427221
17100  ekin = 13.9085542196196 | epot = 5.62894906759184 | etot = 19.5375032872114
17200  ekin = 13.7560546832064 | epot = 5.78144872196967 | etot = 19.537503405176
17300  ekin = 13.6034878086539 | epot = 5.93401564766288 | etot = 19.5375034563167
17400  ekin = 13.4572827621915 | epot = 6.08022072146391 | etot = 19.5375034836554
17500  ekin = 13.3226240386881 | epot = 6.21487948305169 | etot = 19.5375035217397
17600  ekin = 13.2056460568018 | epot = 6.33185752527796 | etot = 19.5375035820798
17700  ekin = 13.1090728671868 | epot = 6.42843062467891 | etot = 19.5375034918657
17800  ekin = 13.027841409848 | epot = 6.50966193554306 | etot = 19.537503345391
17900  ekin = 12.9507283201526 | epot = 6.58677498479953 | etot = 19.5375033049521
18000  ekin = 12.8746296879899 | epot = 6.66287364389069 | etot = 19.5375033318806
18100  ekin = 12.8074480735197 | epot = 6.73005534533889 | etot = 19.5375034188586
18200  ekin = 12.7616134529398 | epot = 6.77589002178316 | etot = 19.537503474723
18300  ekin = 12.7487977380458 | epot = 6.78870579964944 | etot = 19.5375035376953
18400  ekin = 12.7793539143858 | epot = 6.75814957142805 | etot = 19.5375034858138
18500  ekin = 12.849199167783 | epot = 6.68830417256309 | etot = 19.5375033403461
18600  ekin = 12.9364584639717 | epot = 6.60104448736822 | etot = 19.53750295134
18700  ekin = 13.0017156282941 | epot = 6.5357871537091 | etot = 19.5375027820032
18800  ekin = 13.0167641952323 | epot = 6.52073857462745 | etot = 19.5375027698598
18900  ekin = 12.9754155298044 | epot = 6.56208733651092 | etot = 19.5375028663154
19000  ekin = 12.8907274810724 | epot = 6.64677550779067 | etot = 19.537502988863
19100  ekin = 12.786641575388 | epot = 6.75086159353574 | etot = 19.5375031689238
19200  ekin = 12.6925544167099 | epot = 6.84494902182751 | etot = 19.5375034385374
19300  ekin = 12.6497566837306 | epot = 6.8877470234368 | etot = 19.5375037071674
19400  ekin = 12.6948146249833 | epot = 6.84268912565559 | etot = 19.5375037506389
19500  ekin = 12.8404138710971 | epot = 6.69708987474463 | etot = 19.5375037458418
19600  ekin = 13.0860175436461 | epot = 6.45148609191722 | etot = 19.5375036355633
19700  ekin = 13.4162111706515 | epot = 6.12129234948968 | etot = 19.5375035201412
19800  ekin = 13.8027762172415 | epot = 5.73472704880717 | etot = 19.5375032660487
19900  ekin = 14.2094400811316 | epot = 5.32806299206445 | etot = 19.537503073196
20000  ekin = 14.5927988803489 | epot = 4.94470373093741 | etot = 19.5375026112863
     20000   0.098268006    0.049447037    0              0.19537503     0.80784306   
Loop time of 10.1511 on 6 procs for 20000 steps with 100 atoms

Performance: 17022.868 tau/day, 1970.239 timesteps/s, 197.024 katom-step/s
97.3% CPU use with 6 MPI tasks x 1 OpenMP threads

MPI task timing breakdown:
Section |  min time  |  avg time  |  max time  |%varavg| %total
---------------------------------------------------------------
Pair    | 0.39093    | 0.4465     | 0.49423    |   4.9 |  4.40
Neigh   | 0.0054322  | 0.00574    | 0.0059913  |   0.3 |  0.06
Comm    | 3.5642     | 3.7076     | 3.927      |   6.0 | 36.52
Output  | 0.0002094  | 0.00027432 | 0.00033189 |   0.0 |  0.00
Modify  | 1.0676     | 1.2992     | 1.5345     |  13.0 | 12.80
Other   |            | 4.692      |            |       | 46.22

Nlocal:        16.6667 ave          19 max          15 min
Histogram: 1 0 3 0 0 0 0 1 0 1
Nghost:         2500.5 ave        2538 max        2462 min
Histogram: 1 0 1 0 1 0 1 1 0 1
Neighs:        81.3333 ave          98 max          72 min
Histogram: 1 1 1 1 1 0 0 0 0 1

Total # of neighbors = 488
Ave neighs/atom = 4.88
Neighbor list builds = 11
Dangerous builds = 0
System init for write_data ...
Generated 0 of 0 mixed pair_coeff terms from geometric mixing rule
Total wall time: 0:00:10
