ITEM: TIMESTEP
0
ITEM: NUMBER OF ATOMS
16
ITEM: BOX BOUNDS pp pp pp
-2.0000000000000000e+01 2.0000000000000000e+01
-2.0000000000000000e+01 2.0000000000000000e+01
-2.0000000000000000e+01 2.0000000000000000e+01
ITEM: ATOMS id mol type x y z ix iy iz vx vy vz c_quat[1] c_quat[2] c_quat[3] c_quat[4] angmomx angmomy angmomz
1 1 1 -6.133472972454725e-01 -6.574781716697660e-01  3.606522635120190e-01 0 0 0  5.386890022865587e-02  2.262922525602673e-02  2.488229114473675e-01  9.964752158482045e-01 -5.325355573323980e-02  1.139116380710251e-02 -6.380787090289707e-02  1.772010258006941e-01 -2.958853170000101e-01 -2.624137503614725e-01
2 1 2 -4.526276424735636e-01 -1.003065053434591e+00  7.258693379233347e-01 0 0 0 -3.995003075629463e-02  2.696951106370198e-01 -1.898645454819566e-01  9.369923833143513e-01  1.122071604464856e-01  6.732538499716349e-02  3.239168400846305e-01 -3.061453937596818e-02 -1.176951893148060e-01  4.007470242647321e-02
3 1 3 -9.883421085226410e-02 -1.239775807128057e+00  1.069462285786363e+00 0 0 0 -2.078453529520138e-01 -1.362872235767304e-01 -6.062477950201746e-02  7.979649320918270e-01  1.447309635452787e-01  1.837414269936639e-01  5.554673737937029e-01 -3.676034584820381e-02 -6.308707793373186e-02 -1.479860157608762e-01
4 1 4  2.937771854299732e-01 -1.257975092489984e+00  1.425891608660697e+00 0 0 0 -2.396982418131700e-01 -5.624721730878831e-01  3.247442290503672e-02  5.660864821344559e-01  1.468827549948105e-01  9.873742533340191e-02  8.051226439917721e-01 -1.652364596501651e-01  2.860623077030974e-01  3.354351975310588e-01
5 1 1  6.286896795685137e-01 -1.018334339511974e+00  1.768934633967282e+00 0 0 0 -1.611489735682835e-01 -2.288969747076015e-01 -1.355332496264956e-01  2.533023785125306e-01  1.206231316167983e-01  8.583012223905846e-02  9.559922359911086e-01  7.151030852881342e-02 -9.415592891043179e-02  1.342288153931229e-01
6 1 2  7.901522619067926e-01 -6.766341805565266e-01  2.154016070549575e+00 0 0 0 -4.701706588477693e-02  1.921671558511004e-01  1.458824279129722e-01 -3.855807343534716e-02  8.405913137017908e-02  2.236505169306371e-02  9.954632800204194e-01  9.218622989776322e-02 -5.640128930702024e-01  9.287105657777776e-02
7 1 3  7.115777184886863e-01 -4.019557932514345e-01  2.569568683291525e+00 0 0 0  5.098438305112513e-02 -3.845955552200959e-02 -1.424419628574967e-01 -4.559284433024802e-01  1.004550065061007e-01 -5.252474529475878e-02  8.827679181910482e-01  3.479046835475834e-01  4.244922695910593e-01 -1.358288260435836e-01
8 1 4  4.697331037700523e-01 -3.025169796710703e-01  3.066800711751922e+00 0 0 0  3.782797134841193e-01 -4.953992506010833e-02  1.626392045834847e-01  7.680212215404908e-01 -9.582139884533597e-03  3.658677589040892e-02 -6.393066507464399e-01  4.428876596361290e-02  7.868414126013584e-02 -1.271360044432503e-01
9 2 1  4.056113349449848e-01 -1.443775499211898e+00  3.059072650334112e+00 0 0 0  4.912038408665491e-02  4.126064731871670e-02  1.222385633449523e-02 -2.329997575451234e-01  6.886863952313410e-01  6.747873944883376e-01 -1.268232401684158e-01  3.282916621721876e-02 -1.267054709525600e-04  1.559787854176960e-01
10 2 2 -3.202842905928752e-02 -1.294752097116472e+00  2.720107115139219e+00 0 0 0  1.939216183073483e-01  1.107523548538194e-01 -4.050505160199710e-02 -2.466206187190723e-01  8.744456399178389e-01  3.937083608782400e-01 -1.397026120939516e-01 -1.700813500181381e-01 -4.563093565840761e-01 -3.031851362703951e-01
11 2 3 -3.161385511231407e-01 -9.084141759061610e-01  2.412520787178201e+00 0 0 0 -3.513607339206460e-01 -1.882241906753569e-01  3.614793819905130e-01 -8.747590085090901e-02  9.773676023882290e-01  1.449354911309558e-01 -1.268630757266878e-01 -3.708221604627426e-01 -4.910838182594122e-01  9.435948331955418e-02
12 2 4 -3.893939125182100e-01 -4.866605488242819e-01  2.006177777000426e+00 0 0 0 -1.188642917357977e-01  2.235528245655188e-01  9.265586122144348e-03 -3.181169300779214e-02  9.634374984140114e-01 -2.442360692534372e-01 -1.054748563087919e-01 -2.823010018885836e-01  1.027648566082889e-01  1.017523347678070e-01
13 3 1 -6.232643040853296e-02 -7.155965522127403e-02  1.559320605273073e+00 0 0 0 -1.446616296238799e-01 -1.155205990978724e-01  1.331477187595642e-01 -3.278607069657226e-02  7.922941528811774e-01 -6.084214170523914e-01 -3.191282109962716e-02 -2.549872189037434e-01  2.754663721641154e-01  5.806416868630132e-02
14 3 2  1.788409039091338e-01 -5.516721349427172e-02  1.021273149730912e+00 0 0 0  5.154712003586254e-02 -3.661102651077563e-01 -6.630782880801242e-02  4.718868628834144e-02  6.316396208287697e-01 -7.737349519945346e-01  1.178309584462780e-02 -1.199984717331652e-01  6.844768922886051e-02  2.161595932308759e-01
15 3 3  4.513439961906000e-01 -2.379560738327457e-01  5.957328539615993e-01 0 0 0 -2.021424496209139e-01  2.334122693355961e-01  8.133374252278069e-03 -5.869980642620334e-02 -3.422935820341442e-01  9.376740835056506e-01  1.251996587850869e-02 -1.701391112413525e-01  1.870292260510287e-02 -2.682954134361106e-01
16 3 4  5.077649359807965e-01 -5.565625134533538e-01  1.655875784458841e-01 0 0 0 -1.920213116286801e-01 -8.105295741355378e-02 -4.693508108850740e-02 -8.582818143150042e-02  8.707732197394232e-04  9.939540921464659e-01 -6.846917358531610e-02  1.733210765264759e-02 -3.287658886280769e-01  1.085334141225924e-01
ITEM: TIMESTEP
1000
ITEM: NUMBER OF ATOMS
16
ITEM: BOX BOUNDS pp pp pp
-2.0000000000000000e+01 2.0000000000000000e+01
-2.0000000000000000e+01 2.0000000000000000e+01
-2.0000000000000000e+01 2.0000000000000000e+01
ITEM: ATOMS id mol type x y z ix iy iz vx vy vz c_quat[1] c_quat[2] c_quat[3] c_quat[4] angmomx angmomy angmomz
1 1 1 -6.128549084971792e-01 -6.572778389826508e-01  3.630256772445071e-01 0 0 0  4.461491464448586e-02  1.742890081010583e-02  2.254011115551927e-01  9.964225228468881e-01 -5.088418732510770e-02  8.586528456690605e-03 -6.692702722195773e-02  1.959716663625363e-01 -2.454036332123664e-01 -2.580712798984205e-01
2 1 2 -4.530727282086400e-01 -1.000382591676181e+00  7.238959244812394e-01 0 0 0 -4.908356503153441e-02  2.664868223946428e-01 -2.040896799538221e-01  9.369690902150155e-01  1.113064271958009e-01  6.645783771632041e-02  3.244736646518843e-01 -5.984900464884760e-02 -8.584327093576394e-02  4.544573479286542e-02
3 1 3 -1.009360928754060e-01 -1.241078285755406e+00  1.069072495128872e+00 0 0 0 -2.124932303671415e-01 -1.242198281398301e-01 -1.729511454608777e-02  7.990976259150269e-01  1.445351294710603e-01  1.827304223837643e-01  5.542221335720928e-01  3.890683615948331e-02 -1.011519795104608e-01 -1.535662397042396e-01
4 1 4  2.913983135261744e-01 -1.263500395075815e+00  1.426135548475712e+00 0 0 0 -2.359601410381194e-01 -5.423877375980807e-01  1.656220654282865e-02  5.629475459940869e-01  1.479088227448297e-01  1.028105619143771e-01  8.066244658899978e-01 -1.977714281992013e-01  2.746749076720449e-01  3.384313136704042e-01
5 1 1  6.271447190559768e-01 -1.020673018070836e+00  1.767554455518954e+00 0 0 0 -1.478971694710205e-01 -2.385785049357757e-01 -1.400566196217558e-01  2.518063870255288e-01  1.196777057339829e-01  8.494980349654163e-02  9.565847171522754e-01  7.368380324486158e-02 -9.153344484330707e-02  1.364355268419324e-01
6 1 2  7.897750783659770e-01 -6.747406221597735e-01  2.155542246720033e+00 0 0 0 -2.887011055149652e-02  1.861432790880952e-01  1.602113569861981e-01 -3.969346429121391e-02  7.777233921802050e-02  2.166678310052970e-02  9.959449998143441e-01  8.912467144193219e-02 -5.212678429309586e-01  1.148109169221673e-01
7 1 3  7.121272467191069e-01 -4.022657608468133e-01  2.568261988782420e+00 0 0 0  5.917049332519816e-02 -2.345036545541110e-02 -1.185592461285232e-01 -4.546762283472510e-01  1.029346182198310e-01 -5.832514839074997e-02  8.827639371955863e-01  3.243417697689076e-01  4.284238475768615e-01 -1.345024307723210e-01
8 1 4  4.735330501384055e-01 -3.030012684615133e-01  3.068421888897273e+00 0 0 0  3.816379395013084e-01 -4.730160771285422e-02  1.615095266797621e-01  7.670129768779231e-01 -9.812093545376755e-03  3.759763271775148e-02 -6.404539281908921e-01  2.863622222931565e-02  8.662915575060785e-02 -1.387461169841246e-01
9 2 1  4.060804714471385e-01 -1.443400459120393e+00  3.059079392801767e+00 0 0 0  4.474144969938934e-02  3.374763423896320e-02 -1.085834601016061e-02 -2.329171793618817e-01  6.874205618854763e-01  6.760548841369305e-01 -1.270919048946974e-01  5.155487730260428e-03 -9.347099972135685e-04  1.571310515364118e-01
10 2 2 -3.011373445939235e-02 -1.293648272878998e+00  2.719688755685461e+00 0 0 0  1.886684375584800e-01  1.099467663424473e-01 -4.328251175787821e-02 -2.431705352382574e-01  8.770016692518827e-01  3.917513136283429e-01 -1.351557294080373e-01 -2.011301676570173e-01 -4.497265749600015e-01 -2.805325517948288e-01
11 2 3 -3.197730089842832e-01 -9.102607940246381e-01  2.416065979452401e+00 0 0 0 -3.749587289981451e-01 -1.807562818463263e-01  3.462651494652887e-01 -8.242192546207103e-02  9.782747368434790e-01  1.458384578921731e-01 -1.221323448418965e-01 -3.638377247180115e-01 -4.732755968101807e-01  7.598513171770073e-02
12 2 4 -3.906219052690390e-01 -4.844318224803173e-01  2.006350410247795e+00 0 0 0 -1.266379036646531e-01  2.218806607625171e-01  2.513755236480699e-02 -2.831390190195791e-02  9.637076465408445e-01 -2.434474706126573e-01 -1.058263861713734e-01 -2.762227554202250e-01  9.574530872460402e-02  1.079987152931048e-01
13 3 1 -6.375750649598731e-02 -7.280733239079683e-02  1.560554391135637e+00 0 0 0 -1.416536709948911e-01 -1.341060476440117e-01  1.132364326470544e-01 -2.858859393600193e-02  7.926979450508480e-01 -6.080609091039585e-01 -3.278095527273110e-02 -2.316561092413642e-01  2.845763564567878e-01  6.242636323803238e-02
14 3 2  1.793743832609659e-01 -5.886369049462182e-02  1.020588498357522e+00 0 0 0  5.500858225156608e-02 -3.729579801101793e-01 -7.064662950208896e-02  4.848917966992880e-02  6.335341413339568e-01 -7.720947172354339e-01  1.237088664239970e-02 -8.974241385745932e-02  5.944615367876940e-02  2.212914533716883e-01
15 3 3  4.493556544062146e-01 -2.356149586326459e-01  5.958942522985934e-01 0 0 0 -1.953938344561352e-01  2.346469293771067e-01  2.384595214331689e-02 -5.968008909297511e-02 -3.392720059927745e-01  9.387312000667685e-01  1.079476431878515e-02 -2.025445775754325e-01  3.390588605616636e-02 -2.678044057703612e-01
16 3 4  5.058657347559220e-01 -5.573670264867790e-01  1.651747711313987e-01 0 0 0 -1.878814247179794e-01 -7.961691600248769e-02 -3.552475552275784e-02 -8.205630020182432e-02 -1.365164455284656e-04  9.942807308585560e-01 -6.835622286100858e-02  2.041038471570593e-02 -3.164696240118292e-01  1.086400411233053e-01
ITEM: TIMESTEP
2000
ITEM: NUMBER OF ATOMS
16
ITEM: BOX BOUNDS pp pp pp
-2.0000000000000000e+01 2.0000000000000000e+01
-2.0000000000000000e+01 2.0000000000000000e+01
-2.0000000000000000e+01 2.0000000000000000e+01
ITEM: ATOMS id mol type x y z ix iy iz vx vy vz c_quat[1] c_quat[2] c_quat[3] c_quat[4] angmomx angmomy angmomz
1 1 1 -6.124549454213245e-01 -6.571293641247985e-01  3.651512105693708e-01 0 0 0  3.537500850093273e-02  1.229746634222107e-02  1.992530294897758e-01  9.963567289129245e-01 -4.834003900028375e-02  6.382997313140323e-03 -6.996975578554521e-02  2.145173172667183e-01 -1.930184460069241e-01 -2.548406641724491e-01
2 1 2 -4.536090623410155e-01 -9.977416570571965e-01  7.218039552883644e-01 0 0 0 -5.814317845075630e-02  2.613785316899245e-01 -2.133961346658279e-01  9.369390289844975e-01  1.102180446780636e-01  6.601788961933061e-02  3.250213482882955e-01 -8.515816060396750e-02 -5.851449720389359e-02  4.935057842872639e-02
3 1 3 -1.030835415577417e-01 -1.242260261465242e+00  1.069115989225974e+00 0 0 0 -2.169797402942912e-01 -1.121714692537915e-01  2.591724266801518e-02  8.002134247013758e-01  1.448000571054887e-01  1.808816274284938e-01  5.531484929462996e-01  1.138410481931010e-01 -1.389048364417000e-01 -1.581264543584480e-01
4 1 4  2.890603043648998e-01 -1.268819122368723e+00  1.426228158447747e+00 0 0 0 -2.315258868956805e-01 -5.211850280618334e-01  2.240050881462553e-03  5.598456179892827e-01  1.486279386056314e-01  1.070929899255700e-01  8.080926378781338e-01 -2.261795179477569e-01  2.637059861957163e-01  3.378034705171266e-01
5 1 1  6.257302819650475e-01 -1.023100383323392e+00  1.766142638736871e+00 0 0 0 -1.350805312365664e-01 -2.466028594573547e-01 -1.418416295115625e-01  2.502793007153073e-01  1.187841295048155e-01  8.405623244616328e-02  9.571756118906273e-01  7.661556376402777e-02 -8.559631137071202e-02  1.382772045913107e-01
6 1 2  7.895661891323918e-01 -6.729188526508746e-01  2.157235436768942e+00 0 0 0 -1.331707078801507e-02  1.778602775631524e-01  1.790705581759797e-01 -4.108263474731036e-02  7.203477540851301e-02  2.101028956715490e-02  9.963341688341159e-01  8.425092148525758e-02 -4.672616628231464e-01  1.359165120483501e-01
7 1 3  7.127655878121509e-01 -4.024232184409284e-01  2.567203388535840e+00 0 0 0  6.869353877423555e-02 -7.965671732417029e-03 -9.290877780134064e-02 -4.534013793816180e-01  1.055804297085231e-01 -6.388932219966220e-02  8.827219927849751e-01  2.985470423199344e-01  4.321634337921166e-01 -1.304484239989604e-01
8 1 4  4.773643596959767e-01 -3.034625569385198e-01  3.070029249257929e+00 0 0 0  3.845455183263738e-01 -4.492704629410248e-02  1.598835406079095e-01  7.659093576102201e-01 -1.023030904472713e-02  3.856983190604803e-02 -6.417090966853196e-01  1.398108369301282e-02  9.494830767387058e-02 -1.508871626858246e-01
9 2 1  4.065069643634932e-01 -1.443100604669528e+00  3.058856020540829e+00 0 0 0  4.060251491533001e-02  2.621729046471521e-02 -3.377911561438643e-02 -2.326092638046555e-01  6.862238771633337e-01  6.772864693037112e-01 -1.275647259288061e-01 -2.173543438140325e-02 -2.291926495271569e-03  1.568017207917418e-01
10 2 2 -2.826163439132937e-02 -1.292554536848826e+00  2.719239721801014e+00 0 0 0  1.814435886513149e-01  1.087278269850357e-01 -4.658324309355720e-02 -2.393882123760353e-01  8.794856088146880e-01  3.899534013584088e-01 -1.308995509246384e-01 -2.337303538453043e-01 -4.397144209222315e-01 -2.539746410567797e-01
11 2 3 -3.236265385116022e-01 -9.120229586452612e-01  2.419422298871489e+00 0 0 0 -3.952075896131441e-01 -1.713871694621234e-01  3.239253397586138e-01 -7.749662548978942e-02  9.791277990387731e-01  1.465164085935182e-01 -1.176263924467657e-01 -3.585539191642556e-01 -4.454601996593188e-01  5.788067305651209e-02
12 2 4 -3.919244121639820e-01 -4.822293319628999e-01  2.006677366492168e+00 0 0 0 -1.337352214989847e-01  2.182898983019007e-01  4.006358997062646e-02 -2.489933814338232e-02  9.639872330171854e-01 -2.425820356398251e-01 -1.061253670181209e-01 -2.691707733064692e-01  8.994183629633254e-02  1.132332821017706e-01
13 3 1 -6.516155591045675e-02 -7.424329126017976e-02  1.561578391643254e+00 0 0 0 -1.392603693780818e-01 -1.531463437691082e-01  9.124427345204550e-02 -2.455307991724023e-02  7.931012126155594e-01 -6.076493878176213e-01 -3.390920670226231e-02 -2.049006381778060e-01  2.939464400909190e-01  6.542877503447329e-02
14 3 2  1.799383964660047e-01 -6.262194617416414e-02  1.019860217258161e+00 0 0 0  5.766590015457428e-02 -3.784772535020892e-01 -7.498450002563872e-02  4.948435704993697e-02  6.354792393611699e-01 -7.704250624942783e-01  1.275373784390219e-02 -5.851770507892325e-02  5.040206122911995e-02  2.251276855563542e-01
15 3 3  4.474384993844588e-01 -2.332665045054533e-01  5.962028193883618e-01 0 0 0 -1.879309832869554e-01  2.348707698975142e-01  3.747369144239757e-02 -6.092875515926858e-02 -3.362381201058181e-01  9.397629236639456e-01  8.789805972855703e-03 -2.316478755022726e-01  4.618791075435032e-02 -2.653982330608223e-01
16 3 4  5.040059943758787e-01 -5.581504898664938e-01  1.648783773866897e-01 0 0 0 -1.841334601909787e-01 -7.687349614271510e-02 -2.372153039313836e-02 -7.843222824575473e-02 -1.143447170619990e-03  9.945824608812910e-01 -6.821148443106403e-02  2.254883788116166e-02 -3.029457426785272e-01  1.063041239671577e-01
ITEM: TIMESTEP
3000
ITEM: NUMBER OF ATOMS
16
ITEM: BOX BOUNDS pp pp pp
-2.0000000000000000e+01 2.0000000000000000e+01
-2.0000000000000000e+01 2.0000000000000000e+01
-2.0000000000000000e+01 2.0000000000000000e+01
ITEM: ATOMS id mol type x y z ix iy iz vx vy vz c_quat[1] c_quat[2] c_quat[3] c_quat[4] angmomx angmomy angmomz
1 1 1 -6.121476130792605e-01 -6.570308799207614e-01  3.670016336757460e-01 0 0 0  2.607280998999905e-02  7.467857604186914e-03  1.703723855464206e-01  9.962799364967498e-01 -4.562701310636683e-02  4.802029977435343e-03 -7.294795622304624e-02  2.328238221047528e-01 -1.389474869542142e-01 -2.523804004196757e-01
2 1 2 -4.542342925601278e-01 -9.951614693961921e-01  7.196477340090046e-01 0 0 0 -6.681504718095221e-02  2.543386357891825e-01 -2.167903272457751e-01  9.369065009045056e-01  1.089723385331540e-01  6.593142229384535e-02  3.255522777555119e-01 -1.054878144940272e-01 -3.693019854177933e-02  5.138727011348459e-02
3 1 3 -1.052755168947234e-01 -1.243321561744169e+00  1.069588163725349e+00 0 0 0 -2.214139909722321e-01 -1.000792101709654e-01  6.832554147276557e-02  8.013020232134148e-01  1.455146254441075e-01  1.782097355594141e-01  5.522516197602256e-01  1.868391058650142e-01 -1.760588301458753e-01 -1.611496276366744e-01
4 1 4  2.867700958039968e-01 -1.273920887690170e+00  1.426186214902975e+00 0 0 0 -2.264019394484045e-01 -4.990190827371633e-01 -1.032346522590530e-02  5.568070528874778e-01  1.490778667871698e-01  1.115419182703468e-01  8.095060814827271e-01 -2.500261575206209e-01  2.532918851856335e-01  3.335017044194447e-01
5 1 1  6.244409894345088e-01 -1.025598962542120e+00  1.764726999034791e+00 0 0 0 -1.228981893970452e-01 -2.527945634700580e-01 -1.408170249808549e-01  2.487215760838810e-01  1.179816914426681e-01  8.314997240115707e-02  9.577598760463732e-01  8.029727274960022e-02 -7.632206070103099e-02  1.396376812603318e-01
6 1 2  7.895011471330777e-01 -6.711898705638789e-01  2.159134120859504e+00 0 0 0 -4.004439111288875e-05  1.676406460144171e-01  2.010692694708159e-01 -4.271449511451610e-02  6.696351061342637e-02  2.040779608767785e-02  9.966317685144708e-01  7.773708100711346e-02 -4.044867336164735e-01  1.557299473909806e-01
7 1 3  7.135044795090326e-01 -4.024236112498961e-01  2.566408033852086e+00 0 0 0  7.922528705271853e-02  7.958763725600530e-03 -6.599094309326958e-02 -4.521272567533463e-01  1.083997305348262e-01 -6.919256219707147e-02  8.826340303077347e-01  2.711925495706390e-01  4.352488757714765e-01 -1.241101174518020e-01
8 1 4  4.812223315150381e-01 -3.038991097907651e-01  3.071618038448138e+00 0 0 0  3.869646089738241e-01 -4.234286006138174e-02  1.578006470966189e-01  7.647053769185507e-01 -1.083007722513720e-02  3.951387553799781e-02 -6.430762393209090e-01  3.633711148227167e-04  1.036268116431699e-01 -1.636273869643711e-01
9 2 1  4.068935321624513e-01 -1.442876289966138e+00  3.058404763120651e+00 0 0 0  3.676653861662979e-02  1.863409225213319e-02 -5.641371932488564e-02 -2.320809414579398e-01  6.851064108397774e-01  6.784728896483466e-01 -1.282270659824083e-01 -4.770145371766333e-02 -4.213445820631048e-03  1.549602877480094e-01
10 2 2 -2.649060438574646e-02 -1.291475269350190e+00  2.718756455204907e+00 0 0 0  1.724959909812143e-01  1.070422681888631e-01 -5.007551918397834e-02 -2.352703612386115e-01  8.818806665740464e-01  3.883431439637346e-01 -1.269801149075362e-01 -2.672817337634810e-01 -4.268328214387210e-01 -2.242155705904395e-01
11 2 3 -3.276668714586328e-01 -9.136833093227210e-01  2.422525508745162e+00 0 0 0 -4.123704307991570e-01 -1.604487570907614e-01  2.958921355731465e-01 -7.269822554833440e-02  9.799211790530914e-01  1.469632856271387e-01 -1.134515029561034e-01 -3.544992765158287e-01 -4.096214148252500e-01  3.995923363866555e-02
12 2 4 -3.932937803910572e-01 -4.800727134312491e-01  2.007147324892418e+00 0 0 0 -1.399852907010173e-01  2.126932402877961e-01  5.368559143682191e-02 -2.157695916661343e-02  9.642719876948663e-01 -2.416508922043746e-01 -1.063899190569467e-01 -2.609969872748299e-01  8.575225943811673e-02  1.173736613847797e-01
13 3 1 -6.654480023799625e-02 -7.587118111611066e-02  1.562373491261928e+00 0 0 0 -1.374920978258898e-01 -1.724636858139023e-01  6.751790228158829e-02 -2.070753334078488e-02  7.934954765100042e-01 -6.071973048038281e-01 -3.532081341176941e-02 -1.752813771728792e-01  3.034605244091521e-01  6.718186249105389e-02
14 3 2  1.805252444100580e-01 -6.642901129303772e-02  1.019089864819292e+00 0 0 0  5.958595461346186e-02 -3.827286075361747e-01 -7.900281254502502e-02  5.016943800671650e-02  6.374642938992919e-01 -7.687361275335700e-01  1.292546781583183e-02 -2.693433989593625e-02  4.149937665689292e-02  2.276462070909230e-01
15 3 3  4.455989070018521e-01 -2.309211041444897e-01  5.966349769073382e-01 0 0 0 -1.799063934613181e-01  2.340260353780404e-01  4.847876245993231e-02 -6.239489034608538e-02 -3.332148148308237e-01  9.407614586953460e-01  6.530135478273095e-03 -2.566554433240358e-01  5.478616833572949e-02 -2.610971817074162e-01
16 3 4  5.021817596772743e-01 -5.589007915448966e-01  1.647004806071126e-01 0 0 0 -1.807757283614093e-01 -7.301904879088308e-02 -1.187203839704092e-02 -7.496851822650002e-02 -2.123541198965118e-03  9.948594690788115e-01 -6.804299105656958e-02  2.384977602371943e-02 -2.887565922748548e-01  1.018209263091625e-01
ITEM: TIMESTEP
4000
ITEM: NUMBER OF ATOMS
16
ITEM: BOX BOUNDS pp pp pp
-2.0000000000000000e+01 2.0000000000000000e+01
-2.0000000000000000e+01 2.0000000000000000e+01
-2.0000000000000000e+01 2.0000000000000000e+01
ITEM: ATOMS id mol type x y z ix iy iz vx vy vz c_quat[1] c_quat[2] c_quat[3] c_quat[4] angmomx angmomy angmomz
1 1 1 -6.119339109020004e-01 -6.569784921889800e-01  3.685494976604317e-01 0 0 0  1.665717454857464e-02  3.073692700861539e-03  1.387547430076917e-01  9.961933206870629e-01 -4.275115582407421e-02  3.863019186902684e-03 -7.587017580676861e-02  2.508697294881322e-01 -8.335924983009468e-02 -2.505215850499760e-01
2 1 2 -4.549432195377172e-01 -9.926611527946542e-01  7.174904556614716e-01 0 0 0 -7.484644871316484e-02  2.454217360766696e-01 -2.135032547862540e-01  9.368764648565253e-01  1.076060090456065e-01  6.610827130468526e-02  3.260569472965157e-01 -1.199772773697848e-01 -2.207532547117297e-02  5.127494296617371e-02
3 1 3 -1.075119130541675e-01 -1.244261691098742e+00  1.070477424748703e+00 0 0 0 -2.258750889713423e-01 -8.794289332281444e-02  1.092080342691411e-01  8.023495216241827e-01  1.466568598971638e-01  1.747405091294812e-01  5.515367304756037e-01  2.565972801561526e-01 -2.122805778281857e-01 -1.621868736633460e-01
4 1 4  2.845345128830412e-01 -1.278796728575995e+00  1.426028015653699e+00 0 0 0 -2.206040217936760e-01 -4.760196867306434e-01 -2.098937582054203e-02  5.538577694344843e-01  1.493000697744255e-01  1.161114606238798e-01  8.108447379826788e-01 -2.689709555954222e-01  2.435309413836126e-01  3.255227122248377e-01
5 1 1  6.232696730776137e-01 -1.028149691102011e+00  1.763335593747430e+00 0 0 0 -1.115078597779326e-01 -2.570127232622808e-01 -1.370071274771987e-01  2.471351118724275e-01  1.173092251263131e-01  8.223160723537848e-02  9.583322727277597e-01  8.466149846357171e-02 -6.382155653856904e-02  1.404100657099560e-01
6 1 2  7.895590007828118e-01 -6.695714417070522e-01  2.161262630403656e+00 0 0 0  1.131852439408574e-02  1.557987474366597e-01  2.248186930675992e-01 -4.457307450424067e-02  6.264672665541406e-02  1.986977223323562e-02  9.968419236870011e-01  6.983164539732395e-02 -3.354093459170719e-01  1.739295037573098e-01
7 1 3  7.143523645290181e-01 -4.022626171424102e-01  2.565886234364690e+00 0 0 0  9.043904265569433e-02  2.431167476600409e-02 -3.827252245888044e-02 -4.508735812852336e-01  1.113917709464870e-01 -7.421497328426385e-02  8.824947732450596e-01  2.429122264317604e-01  4.372535819434252e-01 -1.159724541816342e-01
8 1 4  4.851019178056148e-01 -3.043084952394968e-01  3.073183820307784e+00 0 0 0  3.888636978349451e-01 -3.948328626332199e-02  1.552845817943624e-01  7.633954288132593e-01 -1.160414838275123e-02  4.044051629530618e-02 -6.445597936957441e-01 -1.215775558099103e-02  1.126496981827946e-01 -1.770219263580809e-01
9 2 1  4.072434988041778e-01 -1.442728203783280e+00  3.057729151677854e+00 0 0 0  3.329145163052420e-02  1.096677799051969e-02 -7.862623542803240e-02 -2.313381951530601e-01  6.840779602709012e-01  6.796048443640235e-01 -1.290629274884135e-01 -7.258395091375142e-02 -6.709866315350455e-03  1.515872279778344e-01
10 2 2 -2.481664420375108e-02 -1.290415493158363e+00  2.718238601555115e+00 0 0 0  1.620688607379130e-01  1.048157086675971e-01 -5.345165147145866e-02 -2.308182102701381e-01  8.841725276845805e-01  3.869446795659515e-01 -1.234330184802808e-01 -3.012236403845086e-01 -4.116352853038122e-01 -1.919690501055337e-01
11 2 3 -3.318646623951787e-01 -9.152277459244204e-01  2.425326003446806e+00 0 0 0 -4.267456217193981e-01 -1.482519802122729e-01  2.636097631546832e-01 -6.802706336141411e-02  9.806527377771016e-01  1.471753888153061e-01 -1.096901612167709e-01 -3.512137936837114e-01 -3.677921720278733e-01  2.210786376812804e-02
12 2 4 -3.947208701462821e-01 -4.779823712405430e-01  2.007745834421726e+00 0 0 0 -1.452626220491170e-01  2.050265219371116e-01  6.573783881050331e-02 -1.835624957198186e-02  9.645570657050649e-01 -2.406659945709458e-01 -1.066423656773603e-01 -2.516120083278128e-01  8.346139464554211e-02  1.203217709513738e-01
13 3 1 -6.791343117664816e-02 -7.769294239676268e-02  1.562924260578553e+00 0 0 0 -1.363330772343861e-01 -1.918948844811340e-01  4.244577135765528e-02 -1.707537619437280e-02  7.938734943918415e-01 -6.067139377774267e-01 -3.703382422214004e-02 -1.434289651611431e-01  3.129873881433201e-01  6.783129025670306e-02
14 3 2  1.811278607917302e-01 -7.027243305107460e-02  1.018282533559549e+00 0 0 0  6.082964082910899e-02 -3.857534721303431e-01 -8.230527387150169e-02  5.054612850856006e-02  6.394778558628121e-01 -7.670379094881905e-01  1.288433785195249e-02  4.277933228076305e-03  3.293350969697551e-02  2.287976470131007e-01
15 3 3  4.438417432511348e-01 -2.285897659483356e-01  5.971620645254522e-01 0 0 0 -1.714703064272935e-01  2.320461551851746e-01  5.638827902839975e-02 -6.401707529525427e-02 -3.302254244829419e-01  9.417200270932748e-01  4.046438822525423e-03 -2.768707354336590e-01  5.904296981429025e-02 -2.549138114142105e-01
16 3 4  5.003892075072401e-01 -5.596077004789836e-01  1.646402456068934e-01 0 0 0 -1.778113082552268e-01 -6.819636478885503e-02 -2.358778347901566e-04 -7.167222779150002e-02 -3.053362105708972e-03  9.951125782719862e-01 -6.785812632349203e-02  2.439304722011773e-02 -2.742985282121780e-01  9.541970420774802e-02
ITEM: TIMESTEP
5000
ITEM: NUMBER OF ATOMS
16
ITEM: BOX BOUNDS pp pp pp
-2.0000000000000000e+01 2.0000000000000000e+01
-2.0000000000000000e+01 2.0000000000000000e+01
-2.0000000000000000e+01 2.0000000000000000e+01
ITEM: ATOMS id mol type x y z ix iy iz vx vy vz c_quat[1] c_quat[2] c_quat[3] c_quat[4] angmomx angmomy angmomz
1 1 1 -6.118148284358019e-01 -6.569679227765555e-01  3.697678309217280e-01 0 0 0  7.130603885975474e-03 -8.713856929908231e-04  1.044688411925162e-01  9.960967611847200e-01 -3.971877772641049e-02  3.582501285974416e-03 -7.874532835519098e-02  2.686249337981365e-01 -2.645326448659927e-02 -2.492939890372741e-01
2 1 2 -4.557284998104906e-01 -9.902587739738659e-01  7.154014701183232e-01 0 0 0 -8.206473479227287e-02  2.347867458397347e-01 -2.030899478836969e-01  9.368544363346266e-01  1.061605239781452e-01  6.644644779925345e-02  3.265250033974061e-01 -1.280579310343853e-01 -1.459165658980812e-02  4.889354944169976e-02
3 1 3 -1.097933080607146e-01 -1.245080493698327e+00  1.071764533903409e+00 0 0 0 -2.304228095792225e-01 -7.583113234352645e-02  1.477487317928040e-01  8.033392893892380e-01  1.481931527602666e-01  1.705124068961696e-01  5.510084343211470e-01  3.216111742688099e-01 -2.471419725178397e-01 -1.608484085052913e-01
4 1 4  2.823601878468862e-01 -1.283438857699656e+00  1.425773179152827e+00 0 0 0 -2.141544769944914e-01 -4.522924823667313e-01 -2.962957285208559e-02  5.510231223014610e-01  1.493388504024823e-01  1.207532766399677e-01  8.120899412197676e-01 -2.827433847950105e-01  2.344955068376487e-01  3.138995181826120e-01
5 1 1  6.222078112167631e-01 -1.030732311645728e+00  1.761995737891672e+00 0 0 0 -1.010223955038012e-01 -2.591609324402775e-01 -1.305359905715665e-01  2.455232535466501e-01  1.168033929268813e-01  8.130203556883897e-02  9.588875212354154e-01  8.958077012318626e-02 -4.834556759647163e-02  1.405121451450249e-01
6 1 2  7.897221300425740e-01 -6.680784030000335e-01  2.163632424643086e+00 0 0 0  2.105768353577928e-02  1.426028644655520e-01  2.491575611678434e-01 -4.663929479810031e-02  5.914622300483707e-02  1.940451849695352e-02  9.969703933151172e-01  6.080092031259775e-02 -2.621020739452521e-01  1.903474894789838e-01
7 1 3  7.153145079548967e-01 -4.019359230598167e-01  2.565643806953792e+00 0 0 0  1.020279758208607e-01  4.110136847405178e-02 -1.018620474578427e-02 -4.496561603319317e-01  1.145482858370938e-01 -7.894129234269008e-02  8.823017057960355e-01  2.142921610459377e-01  4.377877181826400e-01 -1.065357052453469e-01
8 1 4  4.889977883989283e-01 -3.046876655918034e-01  3.074722307607492e+00 0 0 0  3.902179069188267e-01 -3.629104604616948e-02  1.523411433674667e-01  7.619734121376822e-01 -1.254453313904844e-02  4.136093518633643e-02 -6.461643962058673e-01 -2.349761527399255e-02  1.220011960303531e-01 -1.911091124211937e-01
9 2 1  4.075607369082321e-01 -1.442657322483343e+00  3.056834139524948e+00 0 0 0  3.022881692665661e-02  3.189243750444068e-03 -1.002679700244891e-01 -2.303882331290272e-01  6.831479322603987e-01  6.806731181342685e-01 -1.300548766229046e-01 -9.620351922805608e-02 -9.787562979791784e-03  1.466746792676779e-01
10 2 2 -2.325340546189483e-02 -1.289381054548293e+00  2.717688751457115e+00 0 0 0  1.503875918746625e-01  1.019591482125920e-01 -5.642956998436573e-02 -2.260370756857256e-01  8.863491699586098e-01  3.857774006357451e-01 -1.202837748320917e-01 -3.350339629046471e-01 -3.946571967713058e-01 -1.579356431141774e-01